
    FoamFile
    {
        version     2.0;
        format      ascii;
        class       volScalarField;
        location    "0";
        object     H;
    }

dimensions      [0 0 0 0 0 0 0 ];

    internalField   nonuniform List<scalar>
    8000
(
8.355931e-04
8.388798e-04
8.422144e-04
8.455979e-04
8.490315e-04
8.525164e-04
8.560536e-04
8.596446e-04
8.632904e-04
8.669925e-04
8.707522e-04
8.745710e-04
8.784502e-04
8.823915e-04
8.863963e-04
8.904664e-04
8.946033e-04
8.988089e-04
9.030849e-04
9.074332e-04
9.118558e-04
9.163548e-04
9.209322e-04
9.255902e-04
9.303311e-04
9.351574e-04
9.400714e-04
9.450757e-04
9.501732e-04
9.553664e-04
9.606585e-04
9.660525e-04
9.715515e-04
9.771589e-04
9.828782e-04
9.887132e-04
9.946675e-04
1.000745e-03
1.006951e-03
1.013289e-03
1.019763e-03
1.026379e-03
1.033142e-03
1.040058e-03
1.047131e-03
1.054369e-03
1.061777e-03
1.069363e-03
1.077133e-03
1.085095e-03
1.093258e-03
1.101629e-03
1.110217e-03
1.119034e-03
1.128088e-03
1.137390e-03
1.146954e-03
1.156790e-03
1.166913e-03
1.177337e-03
1.188078e-03
1.199152e-03
1.210577e-03
1.222374e-03
1.234562e-03
1.247166e-03
1.260209e-03
1.273719e-03
1.287727e-03
1.302263e-03
1.317365e-03
1.333070e-03
1.349424e-03
1.366473e-03
1.384271e-03
1.402878e-03
1.422361e-03
1.442795e-03
1.464264e-03
1.486866e-03
1.510711e-03
1.535925e-03
1.562654e-03
1.591069e-03
1.621369e-03
1.653790e-03
1.688615e-03
1.726183e-03
1.766910e-03
1.811309e-03
1.860028e-03
1.913894e-03
1.973989e-03
2.041766e-03
2.119233e-03
2.209268e-03
2.315728e-03
2.421467e-03
1.593790e-03
1.082749e-04
3.481938e-06
2.585332e-08
0.000000e+00
0.000000e+00
0.000000e+00
0.000000e+00
0.000000e+00
0.000000e+00
0.000000e+00
0.000000e+00
0.000000e+00
0.000000e+00
0.000000e+00
0.000000e+00
0.000000e+00
0.000000e+00
0.000000e+00
0.000000e+00
0.000000e+00
0.000000e+00
0.000000e+00
0.000000e+00
0.000000e+00
0.000000e+00
0.000000e+00
0.000000e+00
0.000000e+00
0.000000e+00
0.000000e+00
0.000000e+00
0.000000e+00
0.000000e+00
0.000000e+00
0.000000e+00
0.000000e+00
0.000000e+00
0.000000e+00
0.000000e+00
0.000000e+00
0.000000e+00
0.000000e+00
0.000000e+00
0.000000e+00
0.000000e+00
0.000000e+00
0.000000e+00
0.000000e+00
0.000000e+00
0.000000e+00
0.000000e+00
0.000000e+00
0.000000e+00
0.000000e+00
0.000000e+00
0.000000e+00
0.000000e+00
0.000000e+00
0.000000e+00
0.000000e+00
0.000000e+00
0.000000e+00
0.000000e+00
0.000000e+00
0.000000e+00
0.000000e+00
0.000000e+00
0.000000e+00
0.000000e+00
0.000000e+00
0.000000e+00
0.000000e+00
0.000000e+00
0.000000e+00
0.000000e+00
0.000000e+00
0.000000e+00
0.000000e+00
0.000000e+00
0.000000e+00
0.000000e+00
0.000000e+00
0.000000e+00
0.000000e+00
0.000000e+00
0.000000e+00
0.000000e+00
0.000000e+00
0.000000e+00
0.000000e+00
0.000000e+00
0.000000e+00
0.000000e+00
0.000000e+00
0.000000e+00
0.000000e+00
0.000000e+00
0.000000e+00
0.000000e+00
0.000000e+00
0.000000e+00
8.260862e-04
8.292366e-04
8.324318e-04
8.356728e-04
8.389607e-04
8.422965e-04
8.456812e-04
8.491161e-04
8.526022e-04
8.561407e-04
8.597330e-04
8.633802e-04
8.670837e-04
8.708449e-04
8.746651e-04
8.785458e-04
8.824886e-04
8.864950e-04
8.905667e-04
8.947053e-04
8.989125e-04
9.031903e-04
9.075404e-04
9.119649e-04
9.164657e-04
9.210451e-04
9.257051e-04
9.304481e-04
9.352764e-04
9.401926e-04
9.451992e-04
9.502989e-04
9.554946e-04
9.607891e-04
9.661856e-04
9.716872e-04
9.772973e-04
9.830194e-04
9.888572e-04
9.948146e-04
1.000895e-03
1.007104e-03
1.013445e-03
1.019923e-03
1.026543e-03
1.033310e-03
1.040229e-03
1.047306e-03
1.054548e-03
1.061961e-03
1.069551e-03
1.077325e-03
1.085292e-03
1.093460e-03
1.101836e-03
1.110430e-03
1.119252e-03
1.128312e-03
1.137621e-03
1.147191e-03
1.157034e-03
1.167164e-03
1.177596e-03
1.188344e-03
1.199427e-03
1.210861e-03
1.222667e-03
1.234865e-03
1.247479e-03
1.260533e-03
1.274056e-03
1.288075e-03
1.302625e-03
1.317741e-03
1.333462e-03
1.349832e-03
1.366899e-03
1.384716e-03
1.403344e-03
1.422849e-03
1.443307e-03
1.464803e-03
1.487434e-03
1.511310e-03
1.536559e-03
1.563328e-03
1.591786e-03
1.622135e-03
1.654612e-03
1.689499e-03
1.727139e-03
1.767949e-03
1.812446e-03
1.861279e-03
1.915283e-03
1.975547e-03
2.043534e-03
2.121270e-03
2.211658e-03
2.318553e-03
2.422428e-03
1.536024e-03
9.980910e-05
3.193134e-06
1.599488e-08
0.000000e+00
0.000000e+00
0.000000e+00
0.000000e+00
0.000000e+00
0.000000e+00
0.000000e+00
0.000000e+00
0.000000e+00
0.000000e+00
0.000000e+00
0.000000e+00
0.000000e+00
0.000000e+00
0.000000e+00
0.000000e+00
0.000000e+00
0.000000e+00
0.000000e+00
0.000000e+00
0.000000e+00
0.000000e+00
0.000000e+00
0.000000e+00
0.000000e+00
0.000000e+00
0.000000e+00
0.000000e+00
0.000000e+00
0.000000e+00
0.000000e+00
0.000000e+00
0.000000e+00
0.000000e+00
0.000000e+00
0.000000e+00
0.000000e+00
0.000000e+00
0.000000e+00
0.000000e+00
0.000000e+00
0.000000e+00
0.000000e+00
0.000000e+00
0.000000e+00
0.000000e+00
0.000000e+00
0.000000e+00
0.000000e+00
0.000000e+00
0.000000e+00
0.000000e+00
0.000000e+00
0.000000e+00
0.000000e+00
0.000000e+00
0.000000e+00
0.000000e+00
0.000000e+00
0.000000e+00
0.000000e+00
0.000000e+00
0.000000e+00
0.000000e+00
0.000000e+00
0.000000e+00
0.000000e+00
0.000000e+00
0.000000e+00
0.000000e+00
0.000000e+00
0.000000e+00
0.000000e+00
0.000000e+00
0.000000e+00
0.000000e+00
0.000000e+00
0.000000e+00
0.000000e+00
0.000000e+00
0.000000e+00
0.000000e+00
0.000000e+00
0.000000e+00
0.000000e+00
0.000000e+00
0.000000e+00
0.000000e+00
0.000000e+00
0.000000e+00
0.000000e+00
0.000000e+00
0.000000e+00
0.000000e+00
0.000000e+00
8.183060e-04
8.213471e-04
8.244307e-04
8.275577e-04
8.307290e-04
8.339455e-04
8.372084e-04
8.405186e-04
8.438772e-04
8.472853e-04
8.507440e-04
8.542546e-04
8.578182e-04
8.614360e-04
8.651095e-04
8.688398e-04
8.726285e-04
8.764769e-04
8.803865e-04
8.843590e-04
8.883957e-04
8.924986e-04
8.966691e-04
9.009092e-04
9.052206e-04
9.096054e-04
9.140654e-04
9.186028e-04
9.232197e-04
9.279183e-04
9.327010e-04
9.375702e-04
9.425285e-04
9.475784e-04
9.527227e-04
9.579644e-04
9.633063e-04
9.687517e-04
9.743037e-04
9.799659e-04
9.857418e-04
9.916351e-04
9.976499e-04
1.003790e-03
1.010060e-03
1.016465e-03
1.023009e-03
1.029697e-03
1.036534e-03
1.043527e-03
1.050681e-03
1.058002e-03
1.065497e-03
1.073172e-03
1.081036e-03
1.089096e-03
1.097360e-03
1.105837e-03
1.114537e-03
1.123469e-03
1.132645e-03
1.142074e-03
1.151771e-03
1.161747e-03
1.172016e-03
1.182595e-03
1.193498e-03
1.204743e-03
1.216349e-03
1.228336e-03
1.240726e-03
1.253543e-03
1.266813e-03
1.280565e-03
1.294829e-03
1.309639e-03
1.325034e-03
1.341053e-03
1.357743e-03
1.375155e-03
1.393344e-03
1.412375e-03
1.432317e-03
1.453250e-03
1.475265e-03
1.498466e-03
1.522969e-03
1.548910e-03
1.576448e-03
1.605766e-03
1.637080e-03
1.670649e-03
1.706780e-03
1.745849e-03
1.788315e-03
1.834755e-03
1.885895e-03
1.942679e-03
2.006353e-03
2.078614e-03
2.161851e-03
2.259505e-03
2.373711e-03
2.338097e-03
5.316039e-04
2.030655e-05
5.602711e-07
0.000000e+00
0.000000e+00
0.000000e+00
0.000000e+00
0.000000e+00
0.000000e+00
0.000000e+00
0.000000e+00
0.000000e+00
0.000000e+00
0.000000e+00
0.000000e+00
0.000000e+00
0.000000e+00
0.000000e+00
0.000000e+00
0.000000e+00
0.000000e+00
0.000000e+00
0.000000e+00
0.000000e+00
0.000000e+00
0.000000e+00
0.000000e+00
0.000000e+00
0.000000e+00
0.000000e+00
0.000000e+00
0.000000e+00
0.000000e+00
0.000000e+00
0.000000e+00
0.000000e+00
0.000000e+00
0.000000e+00
0.000000e+00
0.000000e+00
0.000000e+00
0.000000e+00
0.000000e+00
0.000000e+00
0.000000e+00
0.000000e+00
0.000000e+00
0.000000e+00
0.000000e+00
0.000000e+00
0.000000e+00
0.000000e+00
0.000000e+00
0.000000e+00
0.000000e+00
0.000000e+00
0.000000e+00
0.000000e+00
0.000000e+00
0.000000e+00
0.000000e+00
0.000000e+00
0.000000e+00
0.000000e+00
0.000000e+00
0.000000e+00
0.000000e+00
0.000000e+00
0.000000e+00
0.000000e+00
0.000000e+00
0.000000e+00
0.000000e+00
0.000000e+00
0.000000e+00
0.000000e+00
0.000000e+00
0.000000e+00
0.000000e+00
0.000000e+00
0.000000e+00
0.000000e+00
0.000000e+00
0.000000e+00
0.000000e+00
0.000000e+00
0.000000e+00
0.000000e+00
0.000000e+00
0.000000e+00
0.000000e+00
0.000000e+00
0.000000e+00
0.000000e+00
0.000000e+00
0.000000e+00
8.128212e-04
8.157866e-04
8.187928e-04
8.218407e-04
8.249312e-04
8.280653e-04
8.312438e-04
8.344677e-04
8.377381e-04
8.410561e-04
8.444226e-04
8.478387e-04
8.513057e-04
8.548247e-04
8.583970e-04
8.620237e-04
8.657062e-04
8.694458e-04
8.732440e-04
8.771022e-04
8.810218e-04
8.850045e-04
8.890518e-04
8.931654e-04
8.973470e-04
9.015985e-04
9.059216e-04
9.103183e-04
9.147907e-04
9.193407e-04
9.239706e-04
9.286826e-04
9.334790e-04
9.383624e-04
9.433352e-04
9.484002e-04
9.535600e-04
9.588176e-04
9.641759e-04
9.696383e-04
9.752078e-04
9.808880e-04
9.866826e-04
9.925952e-04
9.986299e-04
1.004791e-03
1.011082e-03
1.017509e-03
1.024076e-03
1.030787e-03
1.037649e-03
1.044668e-03
1.051848e-03
1.059196e-03
1.066720e-03
1.074425e-03
1.082320e-03
1.090412e-03
1.098710e-03
1.107223e-03
1.115959e-03
1.124930e-03
1.134145e-03
1.143617e-03
1.153358e-03
1.163380e-03
1.173698e-03
1.184328e-03
1.195285e-03
1.206586e-03
1.218252e-03
1.230303e-03
1.242760e-03
1.255648e-03
1.268994e-03
1.282826e-03
1.297176e-03
1.312077e-03
1.327570e-03
1.343694e-03
1.360497e-03
1.378030e-03
1.396350e-03
1.415522e-03
1.435618e-03
1.456719e-03
1.478918e-03
1.502319e-03
1.527044e-03
1.553232e-03
1.581043e-03
1.610666e-03
1.642325e-03
1.676284e-03
1.712861e-03
1.752443e-03
1.795507e-03
1.842649e-03
1.894628e-03
1.952427e-03
2.017354e-03
2.091199e-03
2.176492e-03
2.276856e-03
2.391989e-03
2.206902e-03
3.298028e-04
1.165309e-05
2.837460e-07
0.000000e+00
0.000000e+00
0.000000e+00
0.000000e+00
0.000000e+00
0.000000e+00
0.000000e+00
0.000000e+00
0.000000e+00
0.000000e+00
0.000000e+00
0.000000e+00
0.000000e+00
0.000000e+00
0.000000e+00
0.000000e+00
0.000000e+00
0.000000e+00
0.000000e+00
0.000000e+00
0.000000e+00
0.000000e+00
0.000000e+00
0.000000e+00
0.000000e+00
0.000000e+00
0.000000e+00
0.000000e+00
0.000000e+00
0.000000e+00
0.000000e+00
0.000000e+00
0.000000e+00
0.000000e+00
0.000000e+00
0.000000e+00
0.000000e+00
0.000000e+00
0.000000e+00
0.000000e+00
0.000000e+00
0.000000e+00
0.000000e+00
0.000000e+00
0.000000e+00
0.000000e+00
0.000000e+00
0.000000e+00
0.000000e+00
0.000000e+00
0.000000e+00
0.000000e+00
0.000000e+00
0.000000e+00
0.000000e+00
0.000000e+00
0.000000e+00
0.000000e+00
0.000000e+00
0.000000e+00
0.000000e+00
0.000000e+00
0.000000e+00
0.000000e+00
0.000000e+00
0.000000e+00
0.000000e+00
0.000000e+00
0.000000e+00
0.000000e+00
0.000000e+00
0.000000e+00
0.000000e+00
0.000000e+00
0.000000e+00
0.000000e+00
0.000000e+00
0.000000e+00
0.000000e+00
0.000000e+00
0.000000e+00
0.000000e+00
0.000000e+00
0.000000e+00
0.000000e+00
0.000000e+00
0.000000e+00
0.000000e+00
0.000000e+00
0.000000e+00
0.000000e+00
8.099923e-04
8.129190e-04
8.158857e-04
8.188933e-04
8.219426e-04
8.250345e-04
8.281700e-04
8.313500e-04
8.345755e-04
8.378475e-04
8.411670e-04
8.445351e-04
8.479529e-04
8.514216e-04
8.549424e-04
8.585164e-04
8.621450e-04
8.658293e-04
8.695709e-04
8.733711e-04
8.772312e-04
8.811530e-04
8.851377e-04
8.891872e-04
8.933031e-04
8.974870e-04
9.017408e-04
9.060663e-04
9.104655e-04
9.149404e-04
9.194930e-04
9.241256e-04
9.288404e-04
9.336397e-04
9.385260e-04
9.435018e-04
9.485699e-04
9.537329e-04
9.589937e-04
9.643555e-04
9.698213e-04
9.753945e-04
9.810785e-04
9.868769e-04
9.927935e-04
9.988323e-04
1.004997e-03
1.011293e-03
1.017725e-03
1.024296e-03
1.031013e-03
1.037880e-03
1.044903e-03
1.052089e-03
1.059443e-03
1.066973e-03
1.074684e-03
1.082586e-03
1.090684e-03
1.098989e-03
1.107509e-03
1.116253e-03
1.125232e-03
1.134455e-03
1.143936e-03
1.153686e-03
1.163718e-03
1.174046e-03
1.184686e-03
1.195654e-03
1.206968e-03
1.218646e-03
1.230709e-03
1.243180e-03
1.256084e-03
1.269445e-03
1.283294e-03
1.297661e-03
1.312582e-03
1.328094e-03
1.344240e-03
1.361066e-03
1.378624e-03
1.396972e-03
1.416173e-03
1.436301e-03
1.457437e-03
1.479674e-03
1.503118e-03
1.527889e-03
1.554128e-03
1.581996e-03
1.611683e-03
1.643413e-03
1.677454e-03
1.714123e-03
1.753813e-03
1.797002e-03
1.844292e-03
1.896447e-03
1.954459e-03
2.019650e-03
2.093828e-03
2.179557e-03
2.280493e-03
2.395574e-03
2.168415e-03
2.976346e-04
1.038796e-05
2.436264e-07
0.000000e+00
0.000000e+00
0.000000e+00
0.000000e+00
0.000000e+00
0.000000e+00
0.000000e+00
0.000000e+00
0.000000e+00
0.000000e+00
0.000000e+00
0.000000e+00
0.000000e+00
0.000000e+00
0.000000e+00
0.000000e+00
0.000000e+00
0.000000e+00
0.000000e+00
0.000000e+00
0.000000e+00
0.000000e+00
0.000000e+00
0.000000e+00
0.000000e+00
0.000000e+00
0.000000e+00
0.000000e+00
0.000000e+00
0.000000e+00
0.000000e+00
0.000000e+00
0.000000e+00
0.000000e+00
0.000000e+00
0.000000e+00
0.000000e+00
0.000000e+00
0.000000e+00
0.000000e+00
0.000000e+00
0.000000e+00
0.000000e+00
0.000000e+00
0.000000e+00
0.000000e+00
0.000000e+00
0.000000e+00
0.000000e+00
0.000000e+00
0.000000e+00
0.000000e+00
0.000000e+00
0.000000e+00
0.000000e+00
0.000000e+00
0.000000e+00
0.000000e+00
0.000000e+00
0.000000e+00
0.000000e+00
0.000000e+00
0.000000e+00
0.000000e+00
0.000000e+00
0.000000e+00
0.000000e+00
0.000000e+00
0.000000e+00
0.000000e+00
0.000000e+00
0.000000e+00
0.000000e+00
0.000000e+00
0.000000e+00
0.000000e+00
0.000000e+00
0.000000e+00
0.000000e+00
0.000000e+00
0.000000e+00
0.000000e+00
0.000000e+00
0.000000e+00
0.000000e+00
0.000000e+00
0.000000e+00
0.000000e+00
0.000000e+00
0.000000e+00
8.099923e-04
8.129190e-04
8.158857e-04
8.188933e-04
8.219426e-04
8.250345e-04
8.281700e-04
8.313500e-04
8.345755e-04
8.378475e-04
8.411670e-04
8.445351e-04
8.479529e-04
8.514216e-04
8.549424e-04
8.585164e-04
8.621450e-04
8.658293e-04
8.695709e-04
8.733711e-04
8.772312e-04
8.811530e-04
8.851377e-04
8.891872e-04
8.933031e-04
8.974870e-04
9.017408e-04
9.060663e-04
9.104655e-04
9.149404e-04
9.194930e-04
9.241256e-04
9.288404e-04
9.336397e-04
9.385260e-04
9.435018e-04
9.485699e-04
9.537329e-04
9.589937e-04
9.643555e-04
9.698213e-04
9.753945e-04
9.810785e-04
9.868769e-04
9.927935e-04
9.988323e-04
1.004997e-03
1.011293e-03
1.017725e-03
1.024296e-03
1.031013e-03
1.037880e-03
1.044903e-03
1.052089e-03
1.059443e-03
1.066973e-03
1.074684e-03
1.082586e-03
1.090684e-03
1.098989e-03
1.107509e-03
1.116253e-03
1.125232e-03
1.134455e-03
1.143936e-03
1.153686e-03
1.163718e-03
1.174046e-03
1.184686e-03
1.195654e-03
1.206968e-03
1.218646e-03
1.230709e-03
1.243180e-03
1.256084e-03
1.269445e-03
1.283294e-03
1.297661e-03
1.312582e-03
1.328094e-03
1.344240e-03
1.361066e-03
1.378624e-03
1.396972e-03
1.416173e-03
1.436301e-03
1.457437e-03
1.479674e-03
1.503118e-03
1.527889e-03
1.554128e-03
1.581996e-03
1.611683e-03
1.643413e-03
1.677454e-03
1.714123e-03
1.753813e-03
1.797002e-03
1.844292e-03
1.896447e-03
1.954459e-03
2.019650e-03
2.093828e-03
2.179557e-03
2.280493e-03
2.395574e-03
2.168415e-03
2.976346e-04
1.038796e-05
2.436264e-07
0.000000e+00
0.000000e+00
0.000000e+00
0.000000e+00
0.000000e+00
0.000000e+00
0.000000e+00
0.000000e+00
0.000000e+00
0.000000e+00
0.000000e+00
0.000000e+00
0.000000e+00
0.000000e+00
0.000000e+00
0.000000e+00
0.000000e+00
0.000000e+00
0.000000e+00
0.000000e+00
0.000000e+00
0.000000e+00
0.000000e+00
0.000000e+00
0.000000e+00
0.000000e+00
0.000000e+00
0.000000e+00
0.000000e+00
0.000000e+00
0.000000e+00
0.000000e+00
0.000000e+00
0.000000e+00
0.000000e+00
0.000000e+00
0.000000e+00
0.000000e+00
0.000000e+00
0.000000e+00
0.000000e+00
0.000000e+00
0.000000e+00
0.000000e+00
0.000000e+00
0.000000e+00
0.000000e+00
0.000000e+00
0.000000e+00
0.000000e+00
0.000000e+00
0.000000e+00
0.000000e+00
0.000000e+00
0.000000e+00
0.000000e+00
0.000000e+00
0.000000e+00
0.000000e+00
0.000000e+00
0.000000e+00
0.000000e+00
0.000000e+00
0.000000e+00
0.000000e+00
0.000000e+00
0.000000e+00
0.000000e+00
0.000000e+00
0.000000e+00
0.000000e+00
0.000000e+00
0.000000e+00
0.000000e+00
0.000000e+00
0.000000e+00
0.000000e+00
0.000000e+00
0.000000e+00
0.000000e+00
0.000000e+00
0.000000e+00
0.000000e+00
0.000000e+00
0.000000e+00
0.000000e+00
0.000000e+00
0.000000e+00
0.000000e+00
0.000000e+00
8.128212e-04
8.157866e-04
8.187928e-04
8.218407e-04
8.249312e-04
8.280653e-04
8.312438e-04
8.344677e-04
8.377381e-04
8.410561e-04
8.444226e-04
8.478387e-04
8.513057e-04
8.548247e-04
8.583970e-04
8.620237e-04
8.657062e-04
8.694458e-04
8.732440e-04
8.771022e-04
8.810218e-04
8.850045e-04
8.890518e-04
8.931654e-04
8.973470e-04
9.015985e-04
9.059216e-04
9.103183e-04
9.147907e-04
9.193407e-04
9.239706e-04
9.286826e-04
9.334790e-04
9.383624e-04
9.433352e-04
9.484002e-04
9.535600e-04
9.588176e-04
9.641759e-04
9.696383e-04
9.752078e-04
9.808880e-04
9.866826e-04
9.925952e-04
9.986299e-04
1.004791e-03
1.011082e-03
1.017509e-03
1.024076e-03
1.030787e-03
1.037649e-03
1.044668e-03
1.051848e-03
1.059196e-03
1.066720e-03
1.074425e-03
1.082320e-03
1.090412e-03
1.098710e-03
1.107223e-03
1.115959e-03
1.124930e-03
1.134145e-03
1.143617e-03
1.153358e-03
1.163380e-03
1.173698e-03
1.184328e-03
1.195285e-03
1.206586e-03
1.218252e-03
1.230303e-03
1.242760e-03
1.255648e-03
1.268994e-03
1.282826e-03
1.297176e-03
1.312077e-03
1.327570e-03
1.343694e-03
1.360497e-03
1.378030e-03
1.396350e-03
1.415522e-03
1.435618e-03
1.456719e-03
1.478918e-03
1.502319e-03
1.527044e-03
1.553232e-03
1.581043e-03
1.610666e-03
1.642325e-03
1.676284e-03
1.712861e-03
1.752443e-03
1.795507e-03
1.842649e-03
1.894628e-03
1.952427e-03
2.017354e-03
2.091199e-03
2.176492e-03
2.276856e-03
2.391989e-03
2.206902e-03
3.298028e-04
1.165309e-05
2.837460e-07
0.000000e+00
0.000000e+00
0.000000e+00
0.000000e+00
0.000000e+00
0.000000e+00
0.000000e+00
0.000000e+00
0.000000e+00
0.000000e+00
0.000000e+00
0.000000e+00
0.000000e+00
0.000000e+00
0.000000e+00
0.000000e+00
0.000000e+00
0.000000e+00
0.000000e+00
0.000000e+00
0.000000e+00
0.000000e+00
0.000000e+00
0.000000e+00
0.000000e+00
0.000000e+00
0.000000e+00
0.000000e+00
0.000000e+00
0.000000e+00
0.000000e+00
0.000000e+00
0.000000e+00
0.000000e+00
0.000000e+00
0.000000e+00
0.000000e+00
0.000000e+00
0.000000e+00
0.000000e+00
0.000000e+00
0.000000e+00
0.000000e+00
0.000000e+00
0.000000e+00
0.000000e+00
0.000000e+00
0.000000e+00
0.000000e+00
0.000000e+00
0.000000e+00
0.000000e+00
0.000000e+00
0.000000e+00
0.000000e+00
0.000000e+00
0.000000e+00
0.000000e+00
0.000000e+00
0.000000e+00
0.000000e+00
0.000000e+00
0.000000e+00
0.000000e+00
0.000000e+00
0.000000e+00
0.000000e+00
0.000000e+00
0.000000e+00
0.000000e+00
0.000000e+00
0.000000e+00
0.000000e+00
0.000000e+00
0.000000e+00
0.000000e+00
0.000000e+00
0.000000e+00
0.000000e+00
0.000000e+00
0.000000e+00
0.000000e+00
0.000000e+00
0.000000e+00
0.000000e+00
0.000000e+00
0.000000e+00
0.000000e+00
0.000000e+00
0.000000e+00
0.000000e+00
8.183060e-04
8.213471e-04
8.244307e-04
8.275577e-04
8.307290e-04
8.339455e-04
8.372084e-04
8.405186e-04
8.438772e-04
8.472853e-04
8.507440e-04
8.542546e-04
8.578182e-04
8.614360e-04
8.651095e-04
8.688398e-04
8.726285e-04
8.764769e-04
8.803865e-04
8.843590e-04
8.883957e-04
8.924986e-04
8.966691e-04
9.009092e-04
9.052206e-04
9.096054e-04
9.140654e-04
9.186028e-04
9.232197e-04
9.279183e-04
9.327010e-04
9.375702e-04
9.425285e-04
9.475784e-04
9.527227e-04
9.579644e-04
9.633063e-04
9.687517e-04
9.743037e-04
9.799659e-04
9.857418e-04
9.916351e-04
9.976499e-04
1.003790e-03
1.010060e-03
1.016465e-03
1.023009e-03
1.029697e-03
1.036534e-03
1.043527e-03
1.050681e-03
1.058002e-03
1.065497e-03
1.073172e-03
1.081036e-03
1.089096e-03
1.097360e-03
1.105837e-03
1.114537e-03
1.123469e-03
1.132645e-03
1.142074e-03
1.151771e-03
1.161747e-03
1.172016e-03
1.182595e-03
1.193498e-03
1.204743e-03
1.216349e-03
1.228336e-03
1.240726e-03
1.253543e-03
1.266813e-03
1.280565e-03
1.294829e-03
1.309639e-03
1.325034e-03
1.341053e-03
1.357743e-03
1.375155e-03
1.393344e-03
1.412375e-03
1.432317e-03
1.453250e-03
1.475265e-03
1.498466e-03
1.522969e-03
1.548910e-03
1.576448e-03
1.605766e-03
1.637080e-03
1.670649e-03
1.706780e-03
1.745849e-03
1.788315e-03
1.834755e-03
1.885895e-03
1.942679e-03
2.006353e-03
2.078614e-03
2.161851e-03
2.259505e-03
2.373711e-03
2.338097e-03
5.316039e-04
2.030655e-05
5.602711e-07
0.000000e+00
0.000000e+00
0.000000e+00
0.000000e+00
0.000000e+00
0.000000e+00
0.000000e+00
0.000000e+00
0.000000e+00
0.000000e+00
0.000000e+00
0.000000e+00
0.000000e+00
0.000000e+00
0.000000e+00
0.000000e+00
0.000000e+00
0.000000e+00
0.000000e+00
0.000000e+00
0.000000e+00
0.000000e+00
0.000000e+00
0.000000e+00
0.000000e+00
0.000000e+00
0.000000e+00
0.000000e+00
0.000000e+00
0.000000e+00
0.000000e+00
0.000000e+00
0.000000e+00
0.000000e+00
0.000000e+00
0.000000e+00
0.000000e+00
0.000000e+00
0.000000e+00
0.000000e+00
0.000000e+00
0.000000e+00
0.000000e+00
0.000000e+00
0.000000e+00
0.000000e+00
0.000000e+00
0.000000e+00
0.000000e+00
0.000000e+00
0.000000e+00
0.000000e+00
0.000000e+00
0.000000e+00
0.000000e+00
0.000000e+00
0.000000e+00
0.000000e+00
0.000000e+00
0.000000e+00
0.000000e+00
0.000000e+00
0.000000e+00
0.000000e+00
0.000000e+00
0.000000e+00
0.000000e+00
0.000000e+00
0.000000e+00
0.000000e+00
0.000000e+00
0.000000e+00
0.000000e+00
0.000000e+00
0.000000e+00
0.000000e+00
0.000000e+00
0.000000e+00
0.000000e+00
0.000000e+00
0.000000e+00
0.000000e+00
0.000000e+00
0.000000e+00
0.000000e+00
0.000000e+00
0.000000e+00
0.000000e+00
0.000000e+00
0.000000e+00
0.000000e+00
0.000000e+00
0.000000e+00
8.260862e-04
8.292366e-04
8.324318e-04
8.356728e-04
8.389607e-04
8.422965e-04
8.456812e-04
8.491161e-04
8.526022e-04
8.561407e-04
8.597330e-04
8.633802e-04
8.670837e-04
8.708449e-04
8.746651e-04
8.785458e-04
8.824886e-04
8.864950e-04
8.905667e-04
8.947053e-04
8.989125e-04
9.031903e-04
9.075404e-04
9.119649e-04
9.164657e-04
9.210451e-04
9.257051e-04
9.304481e-04
9.352764e-04
9.401926e-04
9.451992e-04
9.502989e-04
9.554946e-04
9.607891e-04
9.661856e-04
9.716872e-04
9.772973e-04
9.830194e-04
9.888572e-04
9.948146e-04
1.000895e-03
1.007104e-03
1.013445e-03
1.019923e-03
1.026543e-03
1.033310e-03
1.040229e-03
1.047306e-03
1.054548e-03
1.061961e-03
1.069551e-03
1.077325e-03
1.085292e-03
1.093460e-03
1.101836e-03
1.110430e-03
1.119252e-03
1.128312e-03
1.137621e-03
1.147191e-03
1.157034e-03
1.167164e-03
1.177596e-03
1.188344e-03
1.199427e-03
1.210861e-03
1.222667e-03
1.234865e-03
1.247479e-03
1.260533e-03
1.274056e-03
1.288075e-03
1.302625e-03
1.317741e-03
1.333462e-03
1.349832e-03
1.366899e-03
1.384716e-03
1.403344e-03
1.422849e-03
1.443307e-03
1.464803e-03
1.487434e-03
1.511310e-03
1.536559e-03
1.563328e-03
1.591786e-03
1.622135e-03
1.654612e-03
1.689499e-03
1.727139e-03
1.767949e-03
1.812446e-03
1.861279e-03
1.915283e-03
1.975547e-03
2.043534e-03
2.121270e-03
2.211658e-03
2.318553e-03
2.422428e-03
1.536024e-03
9.980910e-05
3.193134e-06
1.599488e-08
0.000000e+00
0.000000e+00
0.000000e+00
0.000000e+00
0.000000e+00
0.000000e+00
0.000000e+00
0.000000e+00
0.000000e+00
0.000000e+00
0.000000e+00
0.000000e+00
0.000000e+00
0.000000e+00
0.000000e+00
0.000000e+00
0.000000e+00
0.000000e+00
0.000000e+00
0.000000e+00
0.000000e+00
0.000000e+00
0.000000e+00
0.000000e+00
0.000000e+00
0.000000e+00
0.000000e+00
0.000000e+00
0.000000e+00
0.000000e+00
0.000000e+00
0.000000e+00
0.000000e+00
0.000000e+00
0.000000e+00
0.000000e+00
0.000000e+00
0.000000e+00
0.000000e+00
0.000000e+00
0.000000e+00
0.000000e+00
0.000000e+00
0.000000e+00
0.000000e+00
0.000000e+00
0.000000e+00
0.000000e+00
0.000000e+00
0.000000e+00
0.000000e+00
0.000000e+00
0.000000e+00
0.000000e+00
0.000000e+00
0.000000e+00
0.000000e+00
0.000000e+00
0.000000e+00
0.000000e+00
0.000000e+00
0.000000e+00
0.000000e+00
0.000000e+00
0.000000e+00
0.000000e+00
0.000000e+00
0.000000e+00
0.000000e+00
0.000000e+00
0.000000e+00
0.000000e+00
0.000000e+00
0.000000e+00
0.000000e+00
0.000000e+00
0.000000e+00
0.000000e+00
0.000000e+00
0.000000e+00
0.000000e+00
0.000000e+00
0.000000e+00
0.000000e+00
0.000000e+00
0.000000e+00
0.000000e+00
0.000000e+00
0.000000e+00
0.000000e+00
0.000000e+00
0.000000e+00
0.000000e+00
0.000000e+00
0.000000e+00
8.355931e-04
8.388798e-04
8.422144e-04
8.455979e-04
8.490315e-04
8.525164e-04
8.560536e-04
8.596446e-04
8.632904e-04
8.669925e-04
8.707522e-04
8.745710e-04
8.784502e-04
8.823915e-04
8.863963e-04
8.904664e-04
8.946033e-04
8.988089e-04
9.030849e-04
9.074332e-04
9.118558e-04
9.163548e-04
9.209322e-04
9.255902e-04
9.303311e-04
9.351574e-04
9.400714e-04
9.450757e-04
9.501732e-04
9.553664e-04
9.606585e-04
9.660525e-04
9.715515e-04
9.771589e-04
9.828782e-04
9.887132e-04
9.946675e-04
1.000745e-03
1.006951e-03
1.013289e-03
1.019763e-03
1.026379e-03
1.033142e-03
1.040058e-03
1.047131e-03
1.054369e-03
1.061777e-03
1.069363e-03
1.077133e-03
1.085095e-03
1.093258e-03
1.101629e-03
1.110217e-03
1.119034e-03
1.128088e-03
1.137390e-03
1.146954e-03
1.156790e-03
1.166913e-03
1.177337e-03
1.188078e-03
1.199152e-03
1.210577e-03
1.222374e-03
1.234562e-03
1.247166e-03
1.260209e-03
1.273719e-03
1.287727e-03
1.302263e-03
1.317365e-03
1.333070e-03
1.349424e-03
1.366473e-03
1.384271e-03
1.402878e-03
1.422361e-03
1.442795e-03
1.464264e-03
1.486866e-03
1.510711e-03
1.535925e-03
1.562654e-03
1.591069e-03
1.621369e-03
1.653790e-03
1.688615e-03
1.726183e-03
1.766910e-03
1.811309e-03
1.860028e-03
1.913894e-03
1.973989e-03
2.041766e-03
2.119233e-03
2.209268e-03
2.315728e-03
2.421467e-03
1.593790e-03
1.082749e-04
3.481938e-06
2.585332e-08
0.000000e+00
0.000000e+00
0.000000e+00
0.000000e+00
0.000000e+00
0.000000e+00
0.000000e+00
0.000000e+00
0.000000e+00
0.000000e+00
0.000000e+00
0.000000e+00
0.000000e+00
0.000000e+00
0.000000e+00
0.000000e+00
0.000000e+00
0.000000e+00
0.000000e+00
0.000000e+00
0.000000e+00
0.000000e+00
0.000000e+00
0.000000e+00
0.000000e+00
0.000000e+00
0.000000e+00
0.000000e+00
0.000000e+00
0.000000e+00
0.000000e+00
0.000000e+00
0.000000e+00
0.000000e+00
0.000000e+00
0.000000e+00
0.000000e+00
0.000000e+00
0.000000e+00
0.000000e+00
0.000000e+00
0.000000e+00
0.000000e+00
0.000000e+00
0.000000e+00
0.000000e+00
0.000000e+00
0.000000e+00
0.000000e+00
0.000000e+00
0.000000e+00
0.000000e+00
0.000000e+00
0.000000e+00
0.000000e+00
0.000000e+00
0.000000e+00
0.000000e+00
0.000000e+00
0.000000e+00
0.000000e+00
0.000000e+00
0.000000e+00
0.000000e+00
0.000000e+00
0.000000e+00
0.000000e+00
0.000000e+00
0.000000e+00
0.000000e+00
0.000000e+00
0.000000e+00
0.000000e+00
0.000000e+00
0.000000e+00
0.000000e+00
0.000000e+00
0.000000e+00
0.000000e+00
0.000000e+00
0.000000e+00
0.000000e+00
0.000000e+00
0.000000e+00
0.000000e+00
0.000000e+00
0.000000e+00
0.000000e+00
0.000000e+00
0.000000e+00
0.000000e+00
0.000000e+00
0.000000e+00
0.000000e+00
0.000000e+00
0.000000e+00
0.000000e+00
0.000000e+00
8.460370e-04
8.494771e-04
8.529686e-04
8.565127e-04
8.601106e-04
8.637636e-04
8.674731e-04
8.712403e-04
8.750668e-04
8.789539e-04
8.829033e-04
8.869164e-04
8.909950e-04
8.951406e-04
8.993551e-04
9.036404e-04
9.079982e-04
9.124305e-04
9.169394e-04
9.215271e-04
9.261956e-04
9.309474e-04
9.357848e-04
9.407103e-04
9.457264e-04
9.508360e-04
9.560419e-04
9.613469e-04
9.667542e-04
9.722669e-04
9.778886e-04
9.836226e-04
9.894726e-04
9.954427e-04
1.001537e-03
1.007759e-03
1.014114e-03
1.020606e-03
1.027241e-03
1.034024e-03
1.040959e-03
1.048053e-03
1.055313e-03
1.062743e-03
1.070352e-03
1.078147e-03
1.086134e-03
1.094323e-03
1.102721e-03
1.111339e-03
1.120185e-03
1.129271e-03
1.138606e-03
1.148204e-03
1.158076e-03
1.168237e-03
1.178701e-03
1.189484e-03
1.200602e-03
1.212074e-03
1.223920e-03
1.236160e-03
1.248819e-03
1.261921e-03
1.275494e-03
1.289567e-03
1.304174e-03
1.319351e-03
1.335138e-03
1.351578e-03
1.368720e-03
1.386619e-03
1.405335e-03
1.424936e-03
1.445498e-03
1.467107e-03
1.489863e-03
1.513876e-03
1.539276e-03
1.566212e-03
1.594858e-03
1.625417e-03
1.658131e-03
1.693288e-03
1.731237e-03
1.772405e-03
1.817321e-03
1.866652e-03
1.921252e-03
1.982245e-03
2.051141e-03
2.130042e-03
2.221964e-03
2.330703e-03
2.423313e-03
1.282983e-03
7.035888e-05
2.200948e-06
0.000000e+00
0.000000e+00
0.000000e+00
0.000000e+00
0.000000e+00
0.000000e+00
0.000000e+00
0.000000e+00
0.000000e+00
0.000000e+00
0.000000e+00
0.000000e+00
0.000000e+00
0.000000e+00
0.000000e+00
0.000000e+00
0.000000e+00
0.000000e+00
0.000000e+00
0.000000e+00
0.000000e+00
0.000000e+00
0.000000e+00
0.000000e+00
0.000000e+00
0.000000e+00
0.000000e+00
0.000000e+00
0.000000e+00
0.000000e+00
0.000000e+00
0.000000e+00
0.000000e+00
0.000000e+00
0.000000e+00
0.000000e+00
0.000000e+00
0.000000e+00
0.000000e+00
0.000000e+00
0.000000e+00
0.000000e+00
0.000000e+00
0.000000e+00
0.000000e+00
0.000000e+00
0.000000e+00
0.000000e+00
0.000000e+00
0.000000e+00
0.000000e+00
0.000000e+00
0.000000e+00
0.000000e+00
0.000000e+00
0.000000e+00
0.000000e+00
0.000000e+00
0.000000e+00
0.000000e+00
0.000000e+00
0.000000e+00
0.000000e+00
0.000000e+00
0.000000e+00
0.000000e+00
0.000000e+00
0.000000e+00
0.000000e+00
0.000000e+00
0.000000e+00
0.000000e+00
0.000000e+00
0.000000e+00
0.000000e+00
0.000000e+00
0.000000e+00
0.000000e+00
0.000000e+00
0.000000e+00
0.000000e+00
0.000000e+00
0.000000e+00
0.000000e+00
0.000000e+00
0.000000e+00
0.000000e+00
0.000000e+00
0.000000e+00
0.000000e+00
0.000000e+00
0.000000e+00
0.000000e+00
0.000000e+00
0.000000e+00
0.000000e+00
0.000000e+00
0.000000e+00
0.000000e+00
0.000000e+00
0.000000e+00
0.000000e+00
8.564255e-04
8.600220e-04
8.636737e-04
8.673818e-04
8.711476e-04
8.749726e-04
8.788582e-04
8.828060e-04
8.868176e-04
8.908945e-04
8.950385e-04
8.992513e-04
9.035348e-04
9.078908e-04
9.123213e-04
9.168283e-04
9.214140e-04
9.260805e-04
9.308302e-04
9.356655e-04
9.405888e-04
9.456027e-04
9.507100e-04
9.559135e-04
9.612160e-04
9.666208e-04
9.721309e-04
9.777498e-04
9.834811e-04
9.893282e-04
9.952953e-04
1.001386e-03
1.007605e-03
1.013957e-03
1.020446e-03
1.027077e-03
1.033856e-03
1.040788e-03
1.047878e-03
1.055133e-03
1.062560e-03
1.070164e-03
1.077954e-03
1.085937e-03
1.094120e-03
1.102514e-03
1.111126e-03
1.119966e-03
1.129046e-03
1.138375e-03
1.147966e-03
1.157832e-03
1.167985e-03
1.178442e-03
1.189216e-03
1.200326e-03
1.211789e-03
1.223626e-03
1.235856e-03
1.248504e-03
1.261595e-03
1.275156e-03
1.289217e-03
1.303810e-03
1.318973e-03
1.334744e-03
1.351168e-03
1.368292e-03
1.386172e-03
1.404867e-03
1.424445e-03
1.444983e-03
1.466566e-03
1.489292e-03
1.513273e-03
1.538638e-03
1.565534e-03
1.594136e-03
1.624645e-03
1.657303e-03
1.692397e-03
1.730273e-03
1.771357e-03
1.816174e-03
1.865387e-03
1.919847e-03
1.980667e-03
2.049348e-03