
    FoamFile
    {
        version     2.0;
        format      ascii;
        class       volScalarField;
        location    "0";
        object     H2;
    }

dimensions      [0 0 0 0 0 0 0 ];

    internalField   nonuniform List<scalar>
    8000
(
2.458400e-03
2.461202e-03
2.464029e-03
2.466881e-03
2.469760e-03
2.472665e-03
2.475596e-03
2.478555e-03
2.481540e-03
2.484554e-03
2.487595e-03
2.490665e-03
2.493764e-03
2.496892e-03
2.500049e-03
2.503237e-03
2.506456e-03
2.509705e-03
2.512986e-03
2.516299e-03
2.519644e-03
2.523022e-03
2.526433e-03
2.529878e-03
2.533357e-03
2.536872e-03
2.540421e-03
2.544007e-03
2.547629e-03
2.551288e-03
2.554985e-03
2.558719e-03
2.562493e-03
2.566306e-03
2.570159e-03
2.574053e-03
2.577988e-03
2.581965e-03
2.585984e-03
2.590047e-03
2.594153e-03
2.598305e-03
2.602502e-03
2.606744e-03
2.611034e-03
2.615371e-03
2.619757e-03
2.624192e-03
2.628676e-03
2.633211e-03
2.637798e-03
2.642437e-03
2.647129e-03
2.651874e-03
2.656674e-03
2.661530e-03
2.666441e-03
2.671409e-03
2.676434e-03
2.681518e-03
2.686660e-03
2.691862e-03
2.697123e-03
2.702444e-03
2.707826e-03
2.713268e-03
2.718771e-03
2.724334e-03
2.729958e-03
2.735640e-03
2.741381e-03
2.747179e-03
2.753033e-03
2.758939e-03
2.764894e-03
2.770895e-03
2.776937e-03
2.783013e-03
2.789116e-03
2.795236e-03
2.801360e-03
2.807474e-03
2.813558e-03
2.819589e-03
2.825536e-03
2.831361e-03
2.837015e-03
2.842435e-03
2.847538e-03
2.852216e-03
2.856322e-03
2.859657e-03
2.861942e-03
2.862781e-03
2.861589e-03
2.857543e-03
2.852472e-03
2.984927e-03
6.991718e-03
1.239523e-02
1.276082e-02
1.277237e-02
1.277243e-02
1.277243e-02
1.277243e-02
1.277243e-02
1.277243e-02
1.277243e-02
1.277243e-02
1.277243e-02
1.277243e-02
1.277243e-02
1.277243e-02
1.277243e-02
1.277243e-02
1.277243e-02
1.277243e-02
1.277243e-02
1.277243e-02
1.277243e-02
1.277243e-02
1.277243e-02
1.277243e-02
1.277243e-02
1.277243e-02
1.277243e-02
1.277243e-02
1.277243e-02
1.277243e-02
1.277243e-02
1.277243e-02
1.277243e-02
1.277243e-02
1.277243e-02
1.277243e-02
1.277243e-02
1.277243e-02
1.277243e-02
1.277243e-02
1.277243e-02
1.277243e-02
1.277243e-02
1.277243e-02
1.277243e-02
1.277243e-02
1.277243e-02
1.277243e-02
1.277243e-02
1.277243e-02
1.277243e-02
1.277243e-02
1.277243e-02
1.277243e-02
1.277243e-02
1.277243e-02
1.277243e-02
1.277243e-02
1.277243e-02
1.277243e-02
1.277243e-02
1.277243e-02
1.277243e-02
1.277243e-02
1.277243e-02
1.277243e-02
1.277243e-02
1.277243e-02
1.277243e-02
1.277243e-02
1.277243e-02
1.277243e-02
1.277243e-02
1.277243e-02
1.277243e-02
1.277243e-02
1.277243e-02
1.277243e-02
1.277243e-02
1.277243e-02
1.277243e-02
1.277243e-02
1.277243e-02
1.277243e-02
1.277243e-02
1.277243e-02
1.277243e-02
1.277243e-02
1.277243e-02
1.277243e-02
1.277243e-02
1.277243e-02
1.277243e-02
1.277243e-02
1.277243e-02
1.277243e-02
1.277243e-02
1.277243e-02
1.277243e-02
1.277243e-02
1.277243e-02
2.450208e-03
2.452937e-03
2.455690e-03
2.458468e-03
2.461270e-03
2.464098e-03
2.466952e-03
2.469831e-03
2.472736e-03
2.475668e-03
2.478627e-03
2.481614e-03
2.484628e-03
2.487670e-03
2.490740e-03
2.493840e-03
2.496969e-03
2.500127e-03
2.503316e-03
2.506535e-03
2.509785e-03
2.513066e-03
2.516380e-03
2.519726e-03
2.523105e-03
2.526517e-03
2.529963e-03
2.533443e-03
2.536958e-03
2.540509e-03
2.544095e-03
2.547718e-03
2.551378e-03
2.555075e-03
2.558811e-03
2.562586e-03
2.566400e-03
2.570254e-03
2.574148e-03
2.578084e-03
2.582062e-03
2.586083e-03
2.590147e-03
2.594254e-03
2.598407e-03
2.602605e-03
2.606849e-03
2.611140e-03
2.615478e-03
2.619865e-03
2.624301e-03
2.628786e-03
2.633323e-03
2.637911e-03
2.642551e-03
2.647244e-03
2.651991e-03
2.656792e-03
2.661649e-03
2.666562e-03
2.671531e-03
2.676558e-03
2.681643e-03
2.686787e-03
2.691990e-03
2.697252e-03
2.702575e-03
2.707958e-03
2.713402e-03
2.718906e-03
2.724471e-03
2.730096e-03
2.735780e-03
2.741522e-03
2.747322e-03
2.753176e-03
2.759084e-03
2.765040e-03
2.771042e-03
2.777085e-03
2.783162e-03
2.789266e-03
2.795386e-03
2.801510e-03
2.807623e-03
2.813706e-03
2.819735e-03
2.825680e-03
2.831501e-03
2.837150e-03
2.842564e-03
2.847658e-03
2.852323e-03
2.856413e-03
2.859726e-03
2.861982e-03
2.862779e-03
2.861528e-03
2.857403e-03
2.852529e-03
2.998999e-03
7.214688e-03
1.242484e-02
1.276181e-02
1.277239e-02
1.277243e-02
1.277243e-02
1.277243e-02
1.277243e-02
1.277243e-02
1.277243e-02
1.277243e-02
1.277243e-02
1.277243e-02
1.277243e-02
1.277243e-02
1.277243e-02
1.277243e-02
1.277243e-02
1.277243e-02
1.277243e-02
1.277243e-02
1.277243e-02
1.277243e-02
1.277243e-02
1.277243e-02
1.277243e-02
1.277243e-02
1.277243e-02
1.277243e-02
1.277243e-02
1.277243e-02
1.277243e-02
1.277243e-02
1.277243e-02
1.277243e-02
1.277243e-02
1.277243e-02
1.277243e-02
1.277243e-02
1.277243e-02
1.277243e-02
1.277243e-02
1.277243e-02
1.277243e-02
1.277243e-02
1.277243e-02
1.277243e-02
1.277243e-02
1.277243e-02
1.277243e-02
1.277243e-02
1.277243e-02
1.277243e-02
1.277243e-02
1.277243e-02
1.277243e-02
1.277243e-02
1.277243e-02
1.277243e-02
1.277243e-02
1.277243e-02
1.277243e-02
1.277243e-02
1.277243e-02
1.277243e-02
1.277243e-02
1.277243e-02
1.277243e-02
1.277243e-02
1.277243e-02
1.277243e-02
1.277243e-02
1.277243e-02
1.277243e-02
1.277243e-02
1.277243e-02
1.277243e-02
1.277243e-02
1.277243e-02
1.277243e-02
1.277243e-02
1.277243e-02
1.277243e-02
1.277243e-02
1.277243e-02
1.277243e-02
1.277243e-02
1.277243e-02
1.277243e-02
1.277243e-02
1.277243e-02
1.277243e-02
1.277243e-02
1.277243e-02
1.277243e-02
1.277243e-02
1.277243e-02
1.277243e-02
1.277243e-02
2.443407e-03
2.446076e-03
2.448768e-03
2.451485e-03
2.454225e-03
2.456989e-03
2.459779e-03
2.462593e-03
2.465433e-03
2.468298e-03
2.471190e-03
2.474107e-03
2.477052e-03
2.480024e-03
2.483023e-03
2.486050e-03
2.489106e-03
2.492190e-03
2.495303e-03
2.498446e-03
2.501618e-03
2.504821e-03
2.508055e-03
2.511319e-03
2.514616e-03
2.517945e-03
2.521306e-03
2.524700e-03
2.528128e-03
2.531590e-03
2.535087e-03
2.538618e-03
2.542185e-03
2.545789e-03
2.549429e-03
2.553107e-03
2.556822e-03
2.560576e-03
2.564369e-03
2.568202e-03
2.572075e-03
2.575989e-03
2.579944e-03
2.583942e-03
2.587983e-03
2.592067e-03
2.596196e-03
2.600369e-03
2.604589e-03
2.608854e-03
2.613168e-03
2.617529e-03
2.621938e-03
2.626398e-03
2.630907e-03
2.635467e-03
2.640080e-03
2.644745e-03
2.649463e-03
2.654235e-03
2.659062e-03
2.663945e-03
2.668884e-03
2.673881e-03
2.678935e-03
2.684047e-03
2.689219e-03
2.694449e-03
2.699740e-03
2.705091e-03
2.710503e-03
2.715975e-03
2.721508e-03
2.727101e-03
2.732753e-03
2.738465e-03
2.744234e-03
2.750060e-03
2.755939e-03
2.761870e-03
2.767849e-03
2.773871e-03
2.779931e-03
2.786021e-03
2.792133e-03
2.798257e-03
2.804378e-03
2.810480e-03
2.816541e-03
2.822535e-03
2.828427e-03
2.834175e-03
2.839722e-03
2.844998e-03
2.849907e-03
2.854323e-03
2.858078e-03
2.860936e-03
2.862568e-03
2.862493e-03
2.860003e-03
2.854460e-03
2.864888e-03
3.754801e-03
1.090288e-02
1.270242e-02
1.277074e-02
1.277243e-02
1.277243e-02
1.277243e-02
1.277243e-02
1.277243e-02
1.277243e-02
1.277243e-02
1.277243e-02
1.277243e-02
1.277243e-02
1.277243e-02
1.277243e-02
1.277243e-02
1.277243e-02
1.277243e-02
1.277243e-02
1.277243e-02
1.277243e-02
1.277243e-02
1.277243e-02
1.277243e-02
1.277243e-02
1.277243e-02
1.277243e-02
1.277243e-02
1.277243e-02
1.277243e-02
1.277243e-02
1.277243e-02
1.277243e-02
1.277243e-02
1.277243e-02
1.277243e-02
1.277243e-02
1.277243e-02
1.277243e-02
1.277243e-02
1.277243e-02
1.277243e-02
1.277243e-02
1.277243e-02
1.277243e-02
1.277243e-02
1.277243e-02
1.277243e-02
1.277243e-02
1.277243e-02
1.277243e-02
1.277243e-02
1.277243e-02
1.277243e-02
1.277243e-02
1.277243e-02
1.277243e-02
1.277243e-02
1.277243e-02
1.277243e-02
1.277243e-02
1.277243e-02
1.277243e-02
1.277243e-02
1.277243e-02
1.277243e-02
1.277243e-02
1.277243e-02
1.277243e-02
1.277243e-02
1.277243e-02
1.277243e-02
1.277243e-02
1.277243e-02
1.277243e-02
1.277243e-02
1.277243e-02
1.277243e-02
1.277243e-02
1.277243e-02
1.277243e-02
1.277243e-02
1.277243e-02
1.277243e-02
1.277243e-02
1.277243e-02
1.277243e-02
1.277243e-02
1.277243e-02
1.277243e-02
1.277243e-02
1.277243e-02
1.277243e-02
1.277243e-02
1.277243e-02
1.277243e-02
2.438559e-03
2.441186e-03
2.443835e-03
2.446508e-03
2.449204e-03
2.451924e-03
2.454668e-03
2.457437e-03
2.460230e-03
2.463049e-03
2.465892e-03
2.468762e-03
2.471658e-03
2.474580e-03
2.477529e-03
2.480505e-03
2.483509e-03
2.486540e-03
2.489600e-03
2.492689e-03
2.495807e-03
2.498954e-03
2.502132e-03
2.505340e-03
2.508578e-03
2.511848e-03
2.515150e-03
2.518484e-03
2.521850e-03
2.525250e-03
2.528683e-03
2.532151e-03
2.535653e-03
2.539190e-03
2.542763e-03
2.546373e-03
2.550019e-03
2.553702e-03
2.557424e-03
2.561184e-03
2.564983e-03
2.568823e-03
2.572702e-03
2.576623e-03
2.580585e-03
2.584590e-03
2.588637e-03
2.592729e-03
2.596864e-03
2.601045e-03
2.605272e-03
2.609546e-03
2.613866e-03
2.618235e-03
2.622653e-03
2.627120e-03
2.631638e-03
2.636206e-03
2.640827e-03
2.645501e-03
2.650227e-03
2.655009e-03
2.659845e-03
2.664737e-03
2.669685e-03
2.674690e-03
2.679754e-03
2.684876e-03
2.690057e-03
2.695297e-03
2.700598e-03
2.705958e-03
2.711380e-03
2.716862e-03
2.722404e-03
2.728007e-03
2.733669e-03
2.739390e-03
2.745169e-03
2.751003e-03
2.756891e-03
2.762830e-03
2.768816e-03
2.774844e-03
2.780909e-03
2.787004e-03
2.793119e-03
2.799243e-03
2.805362e-03
2.811459e-03
2.817511e-03
2.823491e-03
2.829363e-03
2.835083e-03
2.840592e-03
2.845816e-03
2.850655e-03
2.854978e-03
2.858606e-03
2.861292e-03
2.862687e-03
2.862278e-03
2.859316e-03
2.853478e-03
2.881046e-03
4.429325e-03
1.161730e-02
1.273252e-02
1.277163e-02
1.277243e-02
1.277243e-02
1.277243e-02
1.277243e-02
1.277243e-02
1.277243e-02
1.277243e-02
1.277243e-02
1.277243e-02
1.277243e-02
1.277243e-02
1.277243e-02
1.277243e-02
1.277243e-02
1.277243e-02
1.277243e-02
1.277243e-02
1.277243e-02
1.277243e-02
1.277243e-02
1.277243e-02
1.277243e-02
1.277243e-02
1.277243e-02
1.277243e-02
1.277243e-02
1.277243e-02
1.277243e-02
1.277243e-02
1.277243e-02
1.277243e-02
1.277243e-02
1.277243e-02
1.277243e-02
1.277243e-02
1.277243e-02
1.277243e-02
1.277243e-02
1.277243e-02
1.277243e-02
1.277243e-02
1.277243e-02
1.277243e-02
1.277243e-02
1.277243e-02
1.277243e-02
1.277243e-02
1.277243e-02
1.277243e-02
1.277243e-02
1.277243e-02
1.277243e-02
1.277243e-02
1.277243e-02
1.277243e-02
1.277243e-02
1.277243e-02
1.277243e-02
1.277243e-02
1.277243e-02
1.277243e-02
1.277243e-02
1.277243e-02
1.277243e-02
1.277243e-02
1.277243e-02
1.277243e-02
1.277243e-02
1.277243e-02
1.277243e-02
1.277243e-02
1.277243e-02
1.277243e-02
1.277243e-02
1.277243e-02
1.277243e-02
1.277243e-02
1.277243e-02
1.277243e-02
1.277243e-02
1.277243e-02
1.277243e-02
1.277243e-02
1.277243e-02
1.277243e-02
1.277243e-02
1.277243e-02
1.277243e-02
1.277243e-02
1.277243e-02
1.277243e-02
2.436041e-03
2.438646e-03
2.441273e-03
2.443924e-03
2.446597e-03
2.449294e-03
2.452015e-03
2.454760e-03
2.457529e-03
2.460323e-03
2.463142e-03
2.465987e-03
2.468858e-03
2.471754e-03
2.474677e-03
2.477627e-03
2.480604e-03
2.483609e-03
2.486641e-03
2.489702e-03
2.492792e-03
2.495911e-03
2.499059e-03
2.502238e-03
2.505446e-03
2.508686e-03
2.511957e-03
2.515260e-03
2.518595e-03
2.521962e-03
2.525363e-03
2.528798e-03
2.532266e-03
2.535770e-03
2.539308e-03
2.542882e-03
2.546493e-03
2.550140e-03
2.553825e-03
2.557548e-03
2.561310e-03
2.565110e-03
2.568951e-03
2.572831e-03
2.576753e-03
2.580717e-03
2.584723e-03
2.588772e-03
2.592865e-03
2.597002e-03
2.601185e-03
2.605413e-03
2.609688e-03
2.614011e-03
2.618381e-03
2.622800e-03
2.627269e-03
2.631789e-03
2.636359e-03
2.640981e-03
2.645657e-03
2.650385e-03
2.655168e-03
2.660006e-03
2.664900e-03
2.669850e-03
2.674858e-03
2.679923e-03
2.685047e-03
2.690230e-03
2.695472e-03
2.700775e-03
2.706137e-03
2.711561e-03
2.717045e-03
2.722589e-03
2.728194e-03
2.733858e-03
2.739581e-03
2.745361e-03
2.751197e-03
2.757087e-03
2.763028e-03
2.769015e-03
2.775045e-03
2.781111e-03
2.787207e-03
2.793322e-03
2.799446e-03
2.805565e-03
2.811661e-03
2.817711e-03
2.823688e-03
2.829556e-03
2.835269e-03
2.840770e-03
2.845983e-03
2.850807e-03
2.855111e-03
2.858712e-03
2.861362e-03
2.862705e-03
2.862226e-03
2.859163e-03
2.853295e-03
2.885971e-03
4.609638e-03
1.173065e-02
1.273692e-02
1.277175e-02
1.277243e-02
1.277243e-02
1.277243e-02
1.277243e-02
1.277243e-02
1.277243e-02
1.277243e-02
1.277243e-02
1.277243e-02
1.277243e-02
1.277243e-02
1.277243e-02
1.277243e-02
1.277243e-02
1.277243e-02
1.277243e-02
1.277243e-02
1.277243e-02
1.277243e-02
1.277243e-02
1.277243e-02
1.277243e-02
1.277243e-02
1.277243e-02
1.277243e-02
1.277243e-02
1.277243e-02
1.277243e-02
1.277243e-02
1.277243e-02
1.277243e-02
1.277243e-02
1.277243e-02
1.277243e-02
1.277243e-02
1.277243e-02
1.277243e-02
1.277243e-02
1.277243e-02
1.277243e-02
1.277243e-02
1.277243e-02
1.277243e-02
1.277243e-02
1.277243e-02
1.277243e-02
1.277243e-02
1.277243e-02
1.277243e-02
1.277243e-02
1.277243e-02
1.277243e-02
1.277243e-02
1.277243e-02
1.277243e-02
1.277243e-02
1.277243e-02
1.277243e-02
1.277243e-02
1.277243e-02
1.277243e-02
1.277243e-02
1.277243e-02
1.277243e-02
1.277243e-02
1.277243e-02
1.277243e-02
1.277243e-02
1.277243e-02
1.277243e-02
1.277243e-02
1.277243e-02
1.277243e-02
1.277243e-02
1.277243e-02
1.277243e-02
1.277243e-02
1.277243e-02
1.277243e-02
1.277243e-02
1.277243e-02
1.277243e-02
1.277243e-02
1.277243e-02
1.277243e-02
1.277243e-02
1.277243e-02
1.277243e-02
1.277243e-02
1.277243e-02
2.436041e-03
2.438646e-03
2.441273e-03
2.443924e-03
2.446597e-03
2.449294e-03
2.452015e-03
2.454760e-03
2.457529e-03
2.460323e-03
2.463142e-03
2.465987e-03
2.468858e-03
2.471754e-03
2.474677e-03
2.477627e-03
2.480604e-03
2.483609e-03
2.486641e-03
2.489702e-03
2.492792e-03
2.495911e-03
2.499059e-03
2.502238e-03
2.505446e-03
2.508686e-03
2.511957e-03
2.515260e-03
2.518595e-03
2.521962e-03
2.525363e-03
2.528798e-03
2.532266e-03
2.535770e-03
2.539308e-03
2.542882e-03
2.546493e-03
2.550140e-03
2.553825e-03
2.557548e-03
2.561310e-03
2.565110e-03
2.568951e-03
2.572831e-03
2.576753e-03
2.580717e-03
2.584723e-03
2.588772e-03
2.592865e-03
2.597002e-03
2.601185e-03
2.605413e-03
2.609688e-03
2.614011e-03
2.618381e-03
2.622800e-03
2.627269e-03
2.631789e-03
2.636359e-03
2.640981e-03
2.645657e-03
2.650385e-03
2.655168e-03
2.660006e-03
2.664900e-03
2.669850e-03
2.674858e-03
2.679923e-03
2.685047e-03
2.690230e-03
2.695472e-03
2.700775e-03
2.706137e-03
2.711561e-03
2.717045e-03
2.722589e-03
2.728194e-03
2.733858e-03
2.739581e-03
2.745361e-03
2.751197e-03
2.757087e-03
2.763028e-03
2.769015e-03
2.775045e-03
2.781111e-03
2.787207e-03
2.793322e-03
2.799446e-03
2.805565e-03
2.811661e-03
2.817711e-03
2.823688e-03
2.829556e-03
2.835269e-03
2.840770e-03
2.845983e-03
2.850807e-03
2.855111e-03
2.858712e-03
2.861362e-03
2.862705e-03
2.862226e-03
2.859163e-03
2.853295e-03
2.885971e-03
4.609638e-03
1.173065e-02
1.273692e-02
1.277175e-02
1.277243e-02
1.277243e-02
1.277243e-02
1.277243e-02
1.277243e-02
1.277243e-02
1.277243e-02
1.277243e-02
1.277243e-02
1.277243e-02
1.277243e-02
1.277243e-02
1.277243e-02
1.277243e-02
1.277243e-02
1.277243e-02
1.277243e-02
1.277243e-02
1.277243e-02
1.277243e-02
1.277243e-02
1.277243e-02
1.277243e-02
1.277243e-02
1.277243e-02
1.277243e-02
1.277243e-02
1.277243e-02
1.277243e-02
1.277243e-02
1.277243e-02
1.277243e-02
1.277243e-02
1.277243e-02
1.277243e-02
1.277243e-02
1.277243e-02
1.277243e-02
1.277243e-02
1.277243e-02
1.277243e-02
1.277243e-02
1.277243e-02
1.277243e-02
1.277243e-02
1.277243e-02
1.277243e-02
1.277243e-02
1.277243e-02
1.277243e-02
1.277243e-02
1.277243e-02
1.277243e-02
1.277243e-02
1.277243e-02
1.277243e-02
1.277243e-02
1.277243e-02
1.277243e-02
1.277243e-02
1.277243e-02
1.277243e-02
1.277243e-02
1.277243e-02
1.277243e-02
1.277243e-02
1.277243e-02
1.277243e-02
1.277243e-02
1.277243e-02
1.277243e-02
1.277243e-02
1.277243e-02
1.277243e-02
1.277243e-02
1.277243e-02
1.277243e-02
1.277243e-02
1.277243e-02
1.277243e-02
1.277243e-02
1.277243e-02
1.277243e-02
1.277243e-02
1.277243e-02
1.277243e-02
1.277243e-02
1.277243e-02
1.277243e-02
1.277243e-02
2.438559e-03
2.441186e-03
2.443835e-03
2.446508e-03
2.449204e-03
2.451924e-03
2.454668e-03
2.457437e-03
2.460230e-03
2.463049e-03
2.465892e-03
2.468762e-03
2.471658e-03
2.474580e-03
2.477529e-03
2.480505e-03
2.483509e-03
2.486540e-03
2.489600e-03
2.492689e-03
2.495807e-03
2.498954e-03
2.502132e-03
2.505340e-03
2.508578e-03
2.511848e-03
2.515150e-03
2.518484e-03
2.521850e-03
2.525250e-03
2.528683e-03
2.532151e-03
2.535653e-03
2.539190e-03
2.542763e-03
2.546373e-03
2.550019e-03
2.553702e-03
2.557424e-03
2.561184e-03
2.564983e-03
2.568823e-03
2.572702e-03
2.576623e-03
2.580585e-03
2.584590e-03
2.588637e-03
2.592729e-03
2.596864e-03
2.601045e-03
2.605272e-03
2.609546e-03
2.613866e-03
2.618235e-03
2.622653e-03
2.627120e-03
2.631638e-03
2.636206e-03
2.640827e-03
2.645501e-03
2.650227e-03
2.655009e-03
2.659845e-03
2.664737e-03
2.669685e-03
2.674690e-03
2.679754e-03
2.684876e-03
2.690057e-03
2.695297e-03
2.700598e-03
2.705958e-03
2.711380e-03
2.716862e-03
2.722404e-03
2.728007e-03
2.733669e-03
2.739390e-03
2.745169e-03
2.751003e-03
2.756891e-03
2.762830e-03
2.768816e-03
2.774844e-03
2.780909e-03
2.787004e-03
2.793119e-03
2.799243e-03
2.805362e-03
2.811459e-03
2.817511e-03
2.823491e-03
2.829363e-03
2.835083e-03
2.840592e-03
2.845816e-03
2.850655e-03
2.854978e-03
2.858606e-03
2.861292e-03
2.862687e-03
2.862278e-03
2.859316e-03
2.853478e-03
2.881046e-03
4.429325e-03
1.161730e-02
1.273252e-02
1.277163e-02
1.277243e-02
1.277243e-02
1.277243e-02
1.277243e-02
1.277243e-02
1.277243e-02
1.277243e-02
1.277243e-02
1.277243e-02
1.277243e-02
1.277243e-02
1.277243e-02
1.277243e-02
1.277243e-02
1.277243e-02
1.277243e-02
1.277243e-02
1.277243e-02
1.277243e-02
1.277243e-02
1.277243e-02
1.277243e-02
1.277243e-02
1.277243e-02
1.277243e-02
1.277243e-02
1.277243e-02
1.277243e-02
1.277243e-02
1.277243e-02
1.277243e-02
1.277243e-02
1.277243e-02
1.277243e-02
1.277243e-02
1.277243e-02
1.277243e-02
1.277243e-02
1.277243e-02
1.277243e-02
1.277243e-02
1.277243e-02
1.277243e-02
1.277243e-02
1.277243e-02
1.277243e-02
1.277243e-02
1.277243e-02
1.277243e-02
1.277243e-02
1.277243e-02
1.277243e-02
1.277243e-02
1.277243e-02
1.277243e-02
1.277243e-02
1.277243e-02
1.277243e-02
1.277243e-02
1.277243e-02
1.277243e-02
1.277243e-02
1.277243e-02
1.277243e-02
1.277243e-02
1.277243e-02
1.277243e-02
1.277243e-02
1.277243e-02
1.277243e-02
1.277243e-02
1.277243e-02
1.277243e-02
1.277243e-02
1.277243e-02
1.277243e-02
1.277243e-02
1.277243e-02
1.277243e-02
1.277243e-02
1.277243e-02
1.277243e-02
1.277243e-02
1.277243e-02
1.277243e-02
1.277243e-02
1.277243e-02
1.277243e-02
1.277243e-02
1.277243e-02
1.277243e-02
2.443407e-03
2.446076e-03
2.448768e-03
2.451485e-03
2.454225e-03
2.456989e-03
2.459779e-03
2.462593e-03
2.465433e-03
2.468298e-03
2.471190e-03
2.474107e-03
2.477052e-03
2.480024e-03
2.483023e-03
2.486050e-03
2.489106e-03
2.492190e-03
2.495303e-03
2.498446e-03
2.501618e-03
2.504821e-03
2.508055e-03
2.511319e-03
2.514616e-03
2.517945e-03
2.521306e-03
2.524700e-03
2.528128e-03
2.531590e-03
2.535087e-03
2.538618e-03
2.542185e-03
2.545789e-03
2.549429e-03
2.553107e-03
2.556822e-03
2.560576e-03
2.564369e-03
2.568202e-03
2.572075e-03
2.575989e-03
2.579944e-03
2.583942e-03
2.587983e-03
2.592067e-03
2.596196e-03
2.600369e-03
2.604589e-03
2.608854e-03
2.613168e-03
2.617529e-03
2.621938e-03
2.626398e-03
2.630907e-03
2.635467e-03
2.640080e-03
2.644745e-03
2.649463e-03
2.654235e-03
2.659062e-03
2.663945e-03
2.668884e-03
2.673881e-03
2.678935e-03
2.684047e-03
2.689219e-03
2.694449e-03
2.699740e-03
2.705091e-03
2.710503e-03
2.715975e-03
2.721508e-03
2.727101e-03
2.732753e-03
2.738465e-03
2.744234e-03
2.750060e-03
2.755939e-03
2.761870e-03
2.767849e-03
2.773871e-03
2.779931e-03
2.786021e-03
2.792133e-03
2.798257e-03
2.804378e-03
2.810480e-03
2.816541e-03
2.822535e-03
2.828427e-03
2.834175e-03
2.839722e-03
2.844998e-03
2.849907e-03
2.854323e-03
2.858078e-03
2.860936e-03
2.862568e-03
2.862493e-03
2.860003e-03
2.854460e-03
2.864888e-03
3.754801e-03
1.090288e-02
1.270242e-02
1.277074e-02
1.277243e-02
1.277243e-02
1.277243e-02
1.277243e-02
1.277243e-02
1.277243e-02
1.277243e-02
1.277243e-02
1.277243e-02
1.277243e-02
1.277243e-02
1.277243e-02
1.277243e-02
1.277243e-02
1.277243e-02
1.277243e-02
1.277243e-02
1.277243e-02
1.277243e-02
1.277243e-02
1.277243e-02
1.277243e-02
1.277243e-02
1.277243e-02
1.277243e-02
1.277243e-02
1.277243e-02
1.277243e-02
1.277243e-02
1.277243e-02
1.277243e-02
1.277243e-02
1.277243e-02
1.277243e-02
1.277243e-02
1.277243e-02
1.277243e-02
1.277243e-02
1.277243e-02
1.277243e-02
1.277243e-02
1.277243e-02
1.277243e-02
1.277243e-02
1.277243e-02
1.277243e-02
1.277243e-02
1.277243e-02
1.277243e-02
1.277243e-02
1.277243e-02
1.277243e-02
1.277243e-02
1.277243e-02
1.277243e-02
1.277243e-02
1.277243e-02
1.277243e-02
1.277243e-02
1.277243e-02
1.277243e-02
1.277243e-02
1.277243e-02
1.277243e-02
1.277243e-02
1.277243e-02
1.277243e-02
1.277243e-02
1.277243e-02
1.277243e-02
1.277243e-02
1.277243e-02
1.277243e-02
1.277243e-02
1.277243e-02
1.277243e-02
1.277243e-02
1.277243e-02
1.277243e-02
1.277243e-02
1.277243e-02
1.277243e-02
1.277243e-02
1.277243e-02
1.277243e-02
1.277243e-02
1.277243e-02
1.277243e-02
1.277243e-02
1.277243e-02
1.277243e-02
1.277243e-02
1.277243e-02
2.450208e-03
2.452937e-03
2.455690e-03
2.458468e-03
2.461270e-03
2.464098e-03
2.466952e-03
2.469831e-03
2.472736e-03
2.475668e-03
2.478627e-03
2.481614e-03
2.484628e-03
2.487670e-03
2.490740e-03
2.493840e-03
2.496969e-03
2.500127e-03
2.503316e-03
2.506535e-03
2.509785e-03
2.513066e-03
2.516380e-03
2.519726e-03
2.523105e-03
2.526517e-03
2.529963e-03
2.533443e-03
2.536958e-03
2.540509e-03
2.544095e-03
2.547718e-03
2.551378e-03
2.555075e-03
2.558811e-03
2.562586e-03
2.566400e-03
2.570254e-03
2.574148e-03
2.578084e-03
2.582062e-03
2.586083e-03
2.590147e-03
2.594254e-03
2.598407e-03
2.602605e-03
2.606849e-03
2.611140e-03
2.615478e-03
2.619865e-03
2.624301e-03
2.628786e-03
2.633323e-03
2.637911e-03
2.642551e-03
2.647244e-03
2.651991e-03
2.656792e-03
2.661649e-03
2.666562e-03
2.671531e-03
2.676558e-03
2.681643e-03
2.686787e-03
2.691990e-03
2.697252e-03
2.702575e-03
2.707958e-03
2.713402e-03
2.718906e-03
2.724471e-03
2.730096e-03
2.735780e-03
2.741522e-03
2.747322e-03
2.753176e-03
2.759084e-03
2.765040e-03
2.771042e-03
2.777085e-03
2.783162e-03
2.789266e-03
2.795386e-03
2.801510e-03
2.807623e-03
2.813706e-03
2.819735e-03
2.825680e-03
2.831501e-03
2.837150e-03
2.842564e-03
2.847658e-03
2.852323e-03
2.856413e-03
2.859726e-03
2.861982e-03
2.862779e-03
2.861528e-03
2.857403e-03
2.852529e-03
2.998999e-03
7.214688e-03
1.242484e-02
1.276181e-02
1.277239e-02
1.277243e-02
1.277243e-02
1.277243e-02
1.277243e-02
1.277243e-02
1.277243e-02
1.277243e-02
1.277243e-02
1.277243e-02
1.277243e-02
1.277243e-02
1.277243e-02
1.277243e-02
1.277243e-02
1.277243e-02
1.277243e-02
1.277243e-02
1.277243e-02
1.277243e-02
1.277243e-02
1.277243e-02
1.277243e-02
1.277243e-02
1.277243e-02
1.277243e-02
1.277243e-02
1.277243e-02
1.277243e-02
1.277243e-02
1.277243e-02
1.277243e-02
1.277243e-02
1.277243e-02
1.277243e-02
1.277243e-02
1.277243e-02
1.277243e-02
1.277243e-02
1.277243e-02
1.277243e-02
1.277243e-02
1.277243e-02
1.277243e-02
1.277243e-02
1.277243e-02
1.277243e-02
1.277243e-02
1.277243e-02
1.277243e-02
1.277243e-02
1.277243e-02
1.277243e-02
1.277243e-02
1.277243e-02
1.277243e-02
1.277243e-02
1.277243e-02
1.277243e-02
1.277243e-02
1.277243e-02
1.277243e-02
1.277243e-02
1.277243e-02
1.277243e-02
1.277243e-02
1.277243e-02
1.277243e-02
1.277243e-02
1.277243e-02
1.277243e-02
1.277243e-02
1.277243e-02
1.277243e-02
1.277243e-02
1.277243e-02
1.277243e-02
1.277243e-02
1.277243e-02
1.277243e-02
1.277243e-02
1.277243e-02
1.277243e-02
1.277243e-02
1.277243e-02
1.277243e-02
1.277243e-02
1.277243e-02
1.277243e-02
1.277243e-02
1.277243e-02
1.277243e-02
1.277243e-02
1.277243e-02
1.277243e-02
1.277243e-02
2.458400e-03
2.461202e-03
2.464029e-03
2.466881e-03
2.469760e-03
2.472665e-03
2.475596e-03
2.478555e-03
2.481540e-03
2.484554e-03
2.487595e-03
2.490665e-03
2.493764e-03
2.496892e-03
2.500049e-03
2.503237e-03
2.506456e-03
2.509705e-03
2.512986e-03
2.516299e-03
2.519644e-03
2.523022e-03
2.526433e-03
2.529878e-03
2.533357e-03
2.536872e-03
2.540421e-03
2.544007e-03
2.547629e-03
2.551288e-03
2.554985e-03
2.558719e-03
2.562493e-03
2.566306e-03
2.570159e-03
2.574053e-03
2.577988e-03
2.581965e-03
2.585984e-03
2.590047e-03
2.594153e-03
2.598305e-03
2.602502e-03
2.606744e-03
2.611034e-03
2.615371e-03
2.619757e-03
2.624192e-03
2.628676e-03
2.633211e-03
2.637798e-03
2.642437e-03
2.647129e-03
2.651874e-03
2.656674e-03
2.661530e-03
2.666441e-03
2.671409e-03
2.676434e-03
2.681518e-03
2.686660e-03
2.691862e-03
2.697123e-03
2.702444e-03
2.707826e-03
2.713268e-03
2.718771e-03
2.724334e-03
2.729958e-03
2.735640e-03
2.741381e-03
2.747179e-03
2.753033e-03
2.758939e-03
2.764894e-03
2.770895e-03
2.776937e-03
2.783013e-03
2.789116e-03
2.795236e-03
2.801360e-03
2.807474e-03
2.813558e-03
2.819589e-03
2.825536e-03
2.831361e-03
2.837015e-03
2.842435e-03
2.847538e-03
2.852216e-03
2.856322e-03
2.859657e-03
2.861942e-03
2.862781e-03
2.861589e-03
2.857543e-03
2.852472e-03
2.984927e-03
6.991718e-03
1.239523e-02
1.276082e-02
1.277237e-02
1.277243e-02
1.277243e-02
1.277243e-02
1.277243e-02
1.277243e-02
1.277243e-02
1.277243e-02
1.277243e-02
1.277243e-02
1.277243e-02
1.277243e-02
1.277243e-02
1.277243e-02
1.277243e-02
1.277243e-02
1.277243e-02
1.277243e-02
1.277243e-02
1.277243e-02
1.277243e-02
1.277243e-02
1.277243e-02
1.277243e-02
1.277243e-02
1.277243e-02
1.277243e-02
1.277243e-02
1.277243e-02
1.277243e-02
1.277243e-02
1.277243e-02
1.277243e-02
1.277243e-02
1.277243e-02
1.277243e-02
1.277243e-02
1.277243e-02
1.277243e-02
1.277243e-02
1.277243e-02
1.277243e-02
1.277243e-02
1.277243e-02
1.277243e-02
1.277243e-02
1.277243e-02
1.277243e-02
1.277243e-02
1.277243e-02
1.277243e-02
1.277243e-02
1.277243e-02
1.277243e-02
1.277243e-02
1.277243e-02
1.277243e-02
1.277243e-02
1.277243e-02
1.277243e-02
1.277243e-02
1.277243e-02
1.277243e-02
1.277243e-02
1.277243e-02
1.277243e-02
1.277243e-02
1.277243e-02
1.277243e-02
1.277243e-02
1.277243e-02
1.277243e-02
1.277243e-02
1.277243e-02
1.277243e-02
1.277243e-02
1.277243e-02
1.277243e-02
1.277243e-02
1.277243e-02
1.277243e-02
1.277243e-02
1.277243e-02
1.277243e-02
1.277243e-02
1.277243e-02
1.277243e-02
1.277243e-02
1.277243e-02
1.277243e-02
1.277243e-02
1.277243e-02
1.277243e-02
1.277243e-02
1.277243e-02
1.277243e-02
1.277243e-02
1.277243e-02
1.277243e-02
2.467250e-03
2.470132e-03
2.473041e-03
2.475975e-03
2.478937e-03
2.481926e-03
2.484943e-03
2.487988e-03
2.491062e-03
2.494165e-03
2.497296e-03
2.500458e-03
2.503650e-03
2.506872e-03
2.510125e-03
2.513410e-03
2.516727e-03
2.520077e-03
2.523459e-03
2.526874e-03
2.530324e-03
2.533808e-03
2.537326e-03
2.540881e-03
2.544471e-03
2.548098e-03
2.551762e-03
2.555463e-03
2.559203e-03
2.562982e-03
2.566800e-03
2.570658e-03
2.574557e-03
2.578497e-03
2.582479e-03
2.586504e-03
2.590573e-03
2.594685e-03
2.598842e-03
2.603045e-03
2.607294e-03
2.611590e-03
2.615933e-03
2.620325e-03
2.624766e-03
2.629257e-03
2.633799e-03
2.638392e-03
2.643038e-03
2.647736e-03
2.652489e-03
2.657296e-03
2.662158e-03
2.667077e-03
2.672052e-03
2.677085e-03
2.682176e-03
2.687326e-03
2.692535e-03
2.697804e-03
2.703133e-03
2.708523e-03
2.713973e-03
2.719484e-03
2.725055e-03
2.730686e-03
2.736376e-03
2.742124e-03
2.747930e-03
2.753790e-03
2.759702e-03
2.765664e-03
2.771671e-03
2.777717e-03
2.783797e-03
2.789903e-03
2.796024e-03
2.802148e-03
2.808259e-03
2.814338e-03
2.820359e-03
2.826293e-03
2.832099e-03
2.837727e-03
2.843111e-03
2.848166e-03
2.852780e-03
2.856799e-03
2.860016e-03
2.862142e-03
2.862757e-03
2.861247e-03
2.856785e-03
2.853131e-03
3.076225e-03
8.172776e-03
1.252779e-02
1.276522e-02
1.277243e-02
1.277243e-02
1.277243e-02
1.277243e-02
1.277243e-02
1.277243e-02
1.277243e-02
1.277243e-02
1.277243e-02
1.277243e-02
1.277243e-02
1.277243e-02
1.277243e-02
1.277243e-02
1.277243e-02
1.277243e-02
1.277243e-02
1.277243e-02
1.277243e-02
1.277243e-02
1.277243e-02
1.277243e-02
1.277243e-02
1.277243e-02
1.277243e-02
1.277243e-02
1.277243e-02
1.277243e-02
1.277243e-02
1.277243e-02
1.277243e-02
1.277243e-02
1.277243e-02
1.277243e-02
1.277243e-02
1.277243e-02
1.277243e-02
1.277243e-02
1.277243e-02
1.277243e-02
1.277243e-02
1.277243e-02
1.277243e-02
1.277243e-02
1.277243e-02
1.277243e-02
1.277243e-02
1.277243e-02
1.277243e-02
1.277243e-02
1.277243e-02
1.277243e-02
1.277243e-02
1.277243e-02
1.277243e-02
1.277243e-02
1.277243e-02
1.277243e-02
1.277243e-02
1.277243e-02
1.277243e-02
1.277243e-02
1.277243e-02
1.277243e-02
1.277243e-02
1.277243e-02
1.277243e-02
1.277243e-02
1.277243e-02
1.277243e-02
1.277243e-02
1.277243e-02
1.277243e-02
1.277243e-02
1.277243e-02
1.277243e-02
1.277243e-02
1.277243e-02
1.277243e-02
1.277243e-02
1.277243e-02
1.277243e-02
1.277243e-02
1.277243e-02
1.277243e-02
1.277243e-02
1.277243e-02
1.277243e-02
1.277243e-02
1.277243e-02
1.277243e-02
1.277243e-02
1.277243e-02
1.277243e-02
1.277243e-02
1.277243e-02
1.277243e-02
1.277243e-02
1.277243e-02
1.277243e-02
1.277243e-02
1.277243e-02
2.475903e-03
2.478865e-03
2.481853e-03
2.484869e-03
2.487914e-03
2.490987e-03
2.494088e-03
2.497219e-03
2.500380e-03
2.503571e-03
2.506793e-03
2.510046e-03
2.513330e-03
2.516646e-03
2.519994e-03
2.523376e-03
2.526790e-03
2.530239e-03
2.533722e-03
2.537240e-03
2.540793e-03
2.544383e-03
2.548009e-03
2.551672e-03
2.555372e-03
2.559111e-03
2.562889e-03
2.566706e-03
2.570563e-03
2.574461e-03
2.578400e-03
2.582382e-03
2.586406e-03
2.590473e-03
2.594584e-03
2.598740e-03
2.602942e-03
2.607189e-03
2.611484e-03
2.615826e-03
2.620217e-03
2.624657e-03
2.629147e-03
2.633687e-03
2.638279e-03
2.642923e-03
2.647621e-03
2.652372e-03
2.657178e-03
2.662039e-03
2.666956e-03
2.671930e-03
2.676962e-03
2.682051e-03
2.687200e-03
2.692407e-03
2.697675e-03
2.703002e-03
2.708390e-03
2.713839e-03
2.719348e-03
2.724918e-03
2.730547e-03
2.736236e-03
2.741983e-03
2.747787e-03
2.753646e-03
2.759557e-03
2.765518e-03
2.771523e-03
2.777569e-03
2.783649e-03
2.789754e-03
2.795874e-03
2.801998e-03
2.808110e-03
2.814190e-03
2.820213e-03
2.826149e-03
2.831959e-03
2.837592e-03
2.842983e-03
2.848048e-03
2.852673e-03
2.856709e-03
2.859949e-03
2.862106e-03
2.862764e-03