
    FoamFile
    {
        version     2.0;
        format      ascii;
        class       volScalarField;
        location    "0";
        object     H2O;
    }

dimensions      [0 0 0 0 0 0 0 ];

    internalField   nonuniform List<scalar>
    8000
(
7.745651e-02
7.739772e-02
7.733828e-02
7.727816e-02
7.721737e-02
7.715589e-02
7.709370e-02
7.703079e-02
7.696715e-02
7.690276e-02
7.683761e-02
7.677169e-02
7.670498e-02
7.663745e-02
7.656911e-02
7.649992e-02
7.642988e-02
7.635896e-02
7.628715e-02
7.621442e-02
7.614076e-02
7.606615e-02
7.599057e-02
7.591398e-02
7.583638e-02
7.575774e-02
7.567802e-02
7.559722e-02
7.551530e-02
7.543223e-02
7.534799e-02
7.526255e-02
7.517588e-02
7.508794e-02
7.499870e-02
7.490814e-02
7.481621e-02
7.472287e-02
7.462809e-02
7.453183e-02
7.443405e-02
7.433470e-02
7.423373e-02
7.413110e-02
7.402676e-02
7.392066e-02
7.381273e-02
7.370292e-02
7.359118e-02
7.347743e-02
7.336161e-02
7.324365e-02
7.312347e-02
7.300099e-02
7.287613e-02
7.274880e-02
7.261891e-02
7.248635e-02
7.235103e-02
7.221282e-02
7.207161e-02
7.192728e-02
7.177967e-02
7.162865e-02
7.147406e-02
7.131574e-02
7.115349e-02
7.098713e-02
7.081644e-02
7.064120e-02
7.046115e-02
7.027603e-02
7.008554e-02
6.988937e-02
6.968715e-02
6.947851e-02
6.926300e-02
6.904015e-02
6.880944e-02
6.857028e-02
6.832199e-02
6.806383e-02
6.779495e-02
6.751437e-02
6.722099e-02
6.691350e-02
6.659039e-02
6.624990e-02
6.588989e-02
6.550782e-02
6.510056e-02
6.466426e-02
6.419399e-02
6.368344e-02
6.312415e-02
6.250399e-02
6.178408e-02
5.999144e-02
3.436112e-02
2.219879e-03
6.314952e-05
1.549253e-08
0.000000e+00
0.000000e+00
0.000000e+00
0.000000e+00
0.000000e+00
0.000000e+00
0.000000e+00
0.000000e+00
0.000000e+00
0.000000e+00
0.000000e+00
0.000000e+00
0.000000e+00
0.000000e+00
0.000000e+00
0.000000e+00
0.000000e+00
0.000000e+00
0.000000e+00
0.000000e+00
0.000000e+00
0.000000e+00
0.000000e+00
0.000000e+00
0.000000e+00
0.000000e+00
0.000000e+00
0.000000e+00
0.000000e+00
0.000000e+00
0.000000e+00
0.000000e+00
0.000000e+00
0.000000e+00
0.000000e+00
0.000000e+00
0.000000e+00
0.000000e+00
0.000000e+00
0.000000e+00
0.000000e+00
0.000000e+00
0.000000e+00
0.000000e+00
0.000000e+00
0.000000e+00
0.000000e+00
0.000000e+00
0.000000e+00
0.000000e+00
0.000000e+00
0.000000e+00
0.000000e+00
0.000000e+00
0.000000e+00
0.000000e+00
0.000000e+00
0.000000e+00
0.000000e+00
0.000000e+00
0.000000e+00
0.000000e+00
0.000000e+00
0.000000e+00
0.000000e+00
0.000000e+00
0.000000e+00
0.000000e+00
0.000000e+00
0.000000e+00
0.000000e+00
0.000000e+00
0.000000e+00
0.000000e+00
0.000000e+00
0.000000e+00
0.000000e+00
0.000000e+00
0.000000e+00
0.000000e+00
0.000000e+00
0.000000e+00
0.000000e+00
0.000000e+00
0.000000e+00
0.000000e+00
0.000000e+00
0.000000e+00
0.000000e+00
0.000000e+00
0.000000e+00
0.000000e+00
0.000000e+00
0.000000e+00
0.000000e+00
0.000000e+00
0.000000e+00
0.000000e+00
7.762767e-02
7.757077e-02
7.751324e-02
7.745508e-02
7.739627e-02
7.733681e-02
7.727669e-02
7.721588e-02
7.715438e-02
7.709217e-02
7.702924e-02
7.696558e-02
7.690118e-02
7.683601e-02
7.677007e-02
7.670333e-02
7.663579e-02
7.656743e-02
7.649822e-02
7.642816e-02
7.635722e-02
7.628538e-02
7.621263e-02
7.613895e-02
7.606432e-02
7.598871e-02
7.591210e-02
7.583447e-02
7.575580e-02
7.567606e-02
7.559523e-02
7.551328e-02
7.543019e-02
7.534592e-02
7.526045e-02
7.517374e-02
7.508577e-02
7.499651e-02
7.490591e-02
7.481394e-02
7.472057e-02
7.462576e-02
7.452946e-02
7.443164e-02
7.433225e-02
7.423124e-02
7.412857e-02
7.402419e-02
7.391804e-02
7.381007e-02
7.370022e-02
7.358842e-02
7.347462e-02
7.335875e-02
7.324074e-02
7.312050e-02
7.299797e-02
7.287305e-02
7.274566e-02
7.261570e-02
7.248308e-02
7.234769e-02
7.220941e-02
7.206812e-02
7.192371e-02
7.177602e-02
7.162492e-02
7.147024e-02
7.131182e-02
7.114947e-02
7.098301e-02
7.081221e-02
7.063685e-02
7.045669e-02
7.027144e-02
7.008082e-02
6.988450e-02
6.968213e-02
6.947332e-02
6.925764e-02
6.903461e-02
6.880370e-02
6.856432e-02
6.831580e-02
6.805739e-02
6.778824e-02
6.750736e-02
6.721365e-02
6.690579e-02
6.658229e-02
6.624134e-02
6.588083e-02
6.549818e-02
6.509027e-02
6.465319e-02
6.418203e-02
6.367039e-02
6.310978e-02
6.248791e-02
6.176362e-02
5.987333e-02
3.301795e-02
2.044886e-03
5.740830e-05
3.901275e-09
0.000000e+00
0.000000e+00
0.000000e+00
0.000000e+00
0.000000e+00
0.000000e+00
0.000000e+00
0.000000e+00
0.000000e+00
0.000000e+00
0.000000e+00
0.000000e+00
0.000000e+00
0.000000e+00
0.000000e+00
0.000000e+00
0.000000e+00
0.000000e+00
0.000000e+00
0.000000e+00
0.000000e+00
0.000000e+00
0.000000e+00
0.000000e+00
0.000000e+00
0.000000e+00
0.000000e+00
0.000000e+00
0.000000e+00
0.000000e+00
0.000000e+00
0.000000e+00
0.000000e+00
0.000000e+00
0.000000e+00
0.000000e+00
0.000000e+00
0.000000e+00
0.000000e+00
0.000000e+00
0.000000e+00
0.000000e+00
0.000000e+00
0.000000e+00
0.000000e+00
0.000000e+00
0.000000e+00
0.000000e+00
0.000000e+00
0.000000e+00
0.000000e+00
0.000000e+00
0.000000e+00
0.000000e+00
0.000000e+00
0.000000e+00
0.000000e+00
0.000000e+00
0.000000e+00
0.000000e+00
0.000000e+00
0.000000e+00
0.000000e+00
0.000000e+00
0.000000e+00
0.000000e+00
0.000000e+00
0.000000e+00
0.000000e+00
0.000000e+00
0.000000e+00
0.000000e+00
0.000000e+00
0.000000e+00
0.000000e+00
0.000000e+00
0.000000e+00
0.000000e+00
0.000000e+00
0.000000e+00
0.000000e+00
0.000000e+00
0.000000e+00
0.000000e+00
0.000000e+00
0.000000e+00
0.000000e+00
0.000000e+00
0.000000e+00
0.000000e+00
0.000000e+00
0.000000e+00
0.000000e+00
0.000000e+00
0.000000e+00
7.776900e-02
7.771362e-02
7.765765e-02
7.760107e-02
7.754388e-02
7.748605e-02
7.742759e-02
7.736848e-02
7.730871e-02
7.724826e-02
7.718713e-02
7.712530e-02
7.706276e-02
7.699949e-02
7.693548e-02
7.687072e-02
7.680519e-02
7.673888e-02
7.667177e-02
7.660384e-02
7.653509e-02
7.646548e-02
7.639501e-02
7.632365e-02
7.625139e-02
7.617821e-02
7.610408e-02
7.602899e-02
7.595291e-02
7.587583e-02
7.579772e-02
7.571855e-02
7.563830e-02
7.555695e-02
7.547447e-02
7.539083e-02
7.530600e-02
7.521995e-02
7.513266e-02
7.504409e-02
7.495420e-02
7.486296e-02
7.477034e-02
7.467630e-02
7.458080e-02
7.448379e-02
7.438524e-02
7.428510e-02
7.418332e-02
7.407985e-02
7.397465e-02
7.386765e-02
7.375880e-02
7.364805e-02
7.353532e-02
7.342056e-02
7.330369e-02
7.318465e-02
7.306334e-02
7.293970e-02
7.281364e-02
7.268505e-02
7.255386e-02
7.241995e-02
7.228322e-02
7.214355e-02
7.200081e-02
7.185488e-02
7.170561e-02
7.155285e-02
7.139644e-02
7.123621e-02
7.107195e-02
7.090349e-02
7.073058e-02
7.055300e-02
7.037049e-02
7.018276e-02
6.998951e-02
6.979040e-02
6.958506e-02
6.937309e-02
6.915402e-02
6.892737e-02
6.869257e-02
6.844899e-02
6.819593e-02
6.793260e-02
6.765807e-02
6.737133e-02
6.707116e-02
6.675617e-02
6.642473e-02
6.607490e-02
6.570436e-02
6.531030e-02
6.488925e-02
6.443688e-02
6.394765e-02
6.341428e-02
6.282687e-02
6.216829e-02
6.127669e-02
5.450417e-02
1.104595e-02
4.057238e-04
7.072112e-06
0.000000e+00
0.000000e+00
0.000000e+00
0.000000e+00
0.000000e+00
0.000000e+00
0.000000e+00
0.000000e+00
0.000000e+00
0.000000e+00
0.000000e+00
0.000000e+00
0.000000e+00
0.000000e+00
0.000000e+00
0.000000e+00
0.000000e+00
0.000000e+00
0.000000e+00
0.000000e+00
0.000000e+00
0.000000e+00
0.000000e+00
0.000000e+00
0.000000e+00
0.000000e+00
0.000000e+00
0.000000e+00
0.000000e+00
0.000000e+00
0.000000e+00
0.000000e+00
0.000000e+00
0.000000e+00
0.000000e+00
0.000000e+00
0.000000e+00
0.000000e+00
0.000000e+00
0.000000e+00
0.000000e+00
0.000000e+00
0.000000e+00
0.000000e+00
0.000000e+00
0.000000e+00
0.000000e+00
0.000000e+00
0.000000e+00
0.000000e+00
0.000000e+00
0.000000e+00
0.000000e+00
0.000000e+00
0.000000e+00
0.000000e+00
0.000000e+00
0.000000e+00
0.000000e+00
0.000000e+00
0.000000e+00
0.000000e+00
0.000000e+00
0.000000e+00
0.000000e+00
0.000000e+00
0.000000e+00
0.000000e+00
0.000000e+00
0.000000e+00
0.000000e+00
0.000000e+00
0.000000e+00
0.000000e+00
0.000000e+00
0.000000e+00
0.000000e+00
0.000000e+00
0.000000e+00
0.000000e+00
0.000000e+00
0.000000e+00
0.000000e+00
0.000000e+00
0.000000e+00
0.000000e+00
0.000000e+00
0.000000e+00
0.000000e+00
0.000000e+00
0.000000e+00
0.000000e+00
0.000000e+00
7.786932e-02
7.781501e-02
7.776013e-02
7.770465e-02
7.764858e-02
7.759190e-02
7.753461e-02
7.747668e-02
7.741812e-02
7.735890e-02
7.729902e-02
7.723847e-02
7.717722e-02
7.711528e-02
7.705262e-02
7.698923e-02
7.692511e-02
7.686022e-02
7.679457e-02
7.672813e-02
7.666089e-02
7.659283e-02
7.652394e-02
7.645419e-02
7.638358e-02
7.631208e-02
7.623967e-02
7.616634e-02
7.609206e-02
7.601681e-02
7.594057e-02
7.586333e-02
7.578504e-02
7.570570e-02
7.562528e-02
7.554375e-02
7.546108e-02
7.537725e-02
7.529223e-02
7.520598e-02
7.511849e-02
7.502970e-02
7.493960e-02
7.484815e-02
7.475530e-02
7.466103e-02
7.456528e-02
7.446803e-02
7.436923e-02
7.426882e-02
7.416678e-02
7.406303e-02
7.395754e-02
7.385025e-02
7.374110e-02
7.363004e-02
7.351699e-02
7.340189e-02
7.328468e-02
7.316527e-02
7.304360e-02
7.291957e-02
7.279311e-02
7.266411e-02
7.253249e-02
7.239813e-02
7.226094e-02
7.212078e-02
7.197754e-02
7.183108e-02
7.168126e-02
7.152792e-02
7.137091e-02
7.121004e-02
7.104512e-02
7.087595e-02
7.070231e-02
7.052396e-02
7.034062e-02
7.015203e-02
6.995786e-02
6.975777e-02
6.955139e-02
6.933831e-02
6.911806e-02
6.889013e-02
6.865396e-02
6.840890e-02
6.815425e-02
6.788918e-02
6.761276e-02
6.732394e-02
6.702149e-02
6.670397e-02
6.636970e-02
6.601671e-02
6.564258e-02
6.524443e-02
6.481866e-02
6.436077e-02
6.386498e-02
6.332366e-02
6.272634e-02
6.205228e-02
6.102044e-02
5.013076e-02
6.818699e-03
2.285992e-04
2.659524e-06
0.000000e+00
0.000000e+00
0.000000e+00
0.000000e+00
0.000000e+00
0.000000e+00
0.000000e+00
0.000000e+00
0.000000e+00
0.000000e+00
0.000000e+00
0.000000e+00
0.000000e+00
0.000000e+00
0.000000e+00
0.000000e+00
0.000000e+00
0.000000e+00
0.000000e+00
0.000000e+00
0.000000e+00
0.000000e+00
0.000000e+00
0.000000e+00
0.000000e+00
0.000000e+00
0.000000e+00
0.000000e+00
0.000000e+00
0.000000e+00
0.000000e+00
0.000000e+00
0.000000e+00
0.000000e+00
0.000000e+00
0.000000e+00
0.000000e+00
0.000000e+00
0.000000e+00
0.000000e+00
0.000000e+00
0.000000e+00
0.000000e+00
0.000000e+00
0.000000e+00
0.000000e+00
0.000000e+00
0.000000e+00
0.000000e+00
0.000000e+00
0.000000e+00
0.000000e+00
0.000000e+00
0.000000e+00
0.000000e+00
0.000000e+00
0.000000e+00
0.000000e+00
0.000000e+00
0.000000e+00
0.000000e+00
0.000000e+00
0.000000e+00
0.000000e+00
0.000000e+00
0.000000e+00
0.000000e+00
0.000000e+00
0.000000e+00
0.000000e+00
0.000000e+00
0.000000e+00
0.000000e+00
0.000000e+00
0.000000e+00
0.000000e+00
0.000000e+00
0.000000e+00
0.000000e+00
0.000000e+00
0.000000e+00
0.000000e+00
0.000000e+00
0.000000e+00
0.000000e+00
0.000000e+00
0.000000e+00
0.000000e+00
0.000000e+00
0.000000e+00
0.000000e+00
7.792129e-02
7.786753e-02
7.781320e-02
7.775830e-02
7.770280e-02
7.764671e-02
7.759001e-02
7.753270e-02
7.747475e-02
7.741616e-02
7.735693e-02
7.729702e-02
7.723644e-02
7.717518e-02
7.711321e-02
7.705053e-02
7.698712e-02
7.692297e-02
7.685806e-02
7.679238e-02
7.672591e-02
7.665864e-02
7.659056e-02
7.652164e-02
7.645186e-02
7.638122e-02
7.630969e-02
7.623725e-02
7.616389e-02
7.608958e-02
7.601430e-02
7.593803e-02
7.586074e-02
7.578243e-02
7.570305e-02
7.562259e-02
7.554102e-02
7.545832e-02
7.537445e-02
7.528939e-02
7.520310e-02
7.511556e-02
7.502674e-02
7.493659e-02
7.484509e-02
7.475220e-02
7.465787e-02
7.456208e-02
7.446478e-02
7.436592e-02
7.426546e-02
7.416336e-02
7.405956e-02
7.395401e-02
7.384666e-02
7.373745e-02
7.362632e-02
7.351320e-02
7.339804e-02
7.328075e-02
7.316127e-02
7.303952e-02
7.291541e-02
7.278887e-02
7.265979e-02
7.252807e-02
7.239363e-02
7.225633e-02
7.211608e-02
7.197273e-02
7.182616e-02
7.167623e-02
7.152277e-02
7.136563e-02
7.120463e-02
7.103958e-02
7.087026e-02
7.069647e-02
7.051795e-02
7.033445e-02
7.014567e-02
6.995131e-02
6.975103e-02
6.954443e-02
6.933112e-02
6.911062e-02
6.888243e-02
6.864597e-02
6.840061e-02
6.814563e-02
6.788019e-02
6.760338e-02
6.731413e-02
6.701120e-02
6.669315e-02
6.635830e-02
6.600465e-02
6.562978e-02
6.523077e-02
6.480401e-02
6.434497e-02
6.384779e-02
6.330481e-02
6.270539e-02
6.202783e-02
6.095631e-02
4.898775e-02
6.148420e-03
2.027983e-04
2.093905e-06
0.000000e+00
0.000000e+00
0.000000e+00
0.000000e+00
0.000000e+00
0.000000e+00
0.000000e+00
0.000000e+00
0.000000e+00
0.000000e+00
0.000000e+00
0.000000e+00
0.000000e+00
0.000000e+00
0.000000e+00
0.000000e+00
0.000000e+00
0.000000e+00
0.000000e+00
0.000000e+00
0.000000e+00
0.000000e+00
0.000000e+00
0.000000e+00
0.000000e+00
0.000000e+00
0.000000e+00
0.000000e+00
0.000000e+00
0.000000e+00
0.000000e+00
0.000000e+00
0.000000e+00
0.000000e+00
0.000000e+00
0.000000e+00
0.000000e+00
0.000000e+00
0.000000e+00
0.000000e+00
0.000000e+00
0.000000e+00
0.000000e+00
0.000000e+00
0.000000e+00
0.000000e+00
0.000000e+00
0.000000e+00
0.000000e+00
0.000000e+00
0.000000e+00
0.000000e+00
0.000000e+00
0.000000e+00
0.000000e+00
0.000000e+00
0.000000e+00
0.000000e+00
0.000000e+00
0.000000e+00
0.000000e+00
0.000000e+00
0.000000e+00
0.000000e+00
0.000000e+00
0.000000e+00
0.000000e+00
0.000000e+00
0.000000e+00
0.000000e+00
0.000000e+00
0.000000e+00
0.000000e+00
0.000000e+00
0.000000e+00
0.000000e+00
0.000000e+00
0.000000e+00
0.000000e+00
0.000000e+00
0.000000e+00
0.000000e+00
0.000000e+00
0.000000e+00
0.000000e+00
0.000000e+00
0.000000e+00
0.000000e+00
0.000000e+00
0.000000e+00
7.792129e-02
7.786753e-02
7.781320e-02
7.775830e-02
7.770280e-02
7.764671e-02
7.759001e-02
7.753270e-02
7.747475e-02
7.741616e-02
7.735693e-02
7.729702e-02
7.723644e-02
7.717518e-02
7.711321e-02
7.705053e-02
7.698712e-02
7.692297e-02
7.685806e-02
7.679238e-02
7.672591e-02
7.665864e-02
7.659056e-02
7.652164e-02
7.645186e-02
7.638122e-02
7.630969e-02
7.623725e-02
7.616389e-02
7.608958e-02
7.601430e-02
7.593803e-02
7.586074e-02
7.578243e-02
7.570305e-02
7.562259e-02
7.554102e-02
7.545832e-02
7.537445e-02
7.528939e-02
7.520310e-02
7.511556e-02
7.502674e-02
7.493659e-02
7.484509e-02
7.475220e-02
7.465787e-02
7.456208e-02
7.446478e-02
7.436592e-02
7.426546e-02
7.416336e-02
7.405956e-02
7.395401e-02
7.384666e-02
7.373745e-02
7.362632e-02
7.351320e-02
7.339804e-02
7.328075e-02
7.316127e-02
7.303952e-02
7.291541e-02
7.278887e-02
7.265979e-02
7.252807e-02
7.239363e-02
7.225633e-02
7.211608e-02
7.197273e-02
7.182616e-02
7.167623e-02
7.152277e-02
7.136563e-02
7.120463e-02
7.103958e-02
7.087026e-02
7.069647e-02
7.051795e-02
7.033445e-02
7.014567e-02
6.995131e-02
6.975103e-02
6.954443e-02
6.933112e-02
6.911062e-02
6.888243e-02
6.864597e-02
6.840061e-02
6.814563e-02
6.788019e-02
6.760338e-02
6.731413e-02
6.701120e-02
6.669315e-02
6.635830e-02
6.600465e-02
6.562978e-02
6.523077e-02
6.480401e-02
6.434497e-02
6.384779e-02
6.330481e-02
6.270539e-02
6.202783e-02
6.095631e-02
4.898775e-02
6.148420e-03
2.027983e-04
2.093905e-06
0.000000e+00
0.000000e+00
0.000000e+00
0.000000e+00
0.000000e+00
0.000000e+00
0.000000e+00
0.000000e+00
0.000000e+00
0.000000e+00
0.000000e+00
0.000000e+00
0.000000e+00
0.000000e+00
0.000000e+00
0.000000e+00
0.000000e+00
0.000000e+00
0.000000e+00
0.000000e+00
0.000000e+00
0.000000e+00
0.000000e+00
0.000000e+00
0.000000e+00
0.000000e+00
0.000000e+00
0.000000e+00
0.000000e+00
0.000000e+00
0.000000e+00
0.000000e+00
0.000000e+00
0.000000e+00
0.000000e+00
0.000000e+00
0.000000e+00
0.000000e+00
0.000000e+00
0.000000e+00
0.000000e+00
0.000000e+00
0.000000e+00
0.000000e+00
0.000000e+00
0.000000e+00
0.000000e+00
0.000000e+00
0.000000e+00
0.000000e+00
0.000000e+00
0.000000e+00
0.000000e+00
0.000000e+00
0.000000e+00
0.000000e+00
0.000000e+00
0.000000e+00
0.000000e+00
0.000000e+00
0.000000e+00
0.000000e+00
0.000000e+00
0.000000e+00
0.000000e+00
0.000000e+00
0.000000e+00
0.000000e+00
0.000000e+00
0.000000e+00
0.000000e+00
0.000000e+00
0.000000e+00
0.000000e+00
0.000000e+00
0.000000e+00
0.000000e+00
0.000000e+00
0.000000e+00
0.000000e+00
0.000000e+00
0.000000e+00
0.000000e+00
0.000000e+00
0.000000e+00
0.000000e+00
0.000000e+00
0.000000e+00
0.000000e+00
0.000000e+00
7.786932e-02
7.781501e-02
7.776013e-02
7.770465e-02
7.764858e-02
7.759190e-02
7.753461e-02
7.747668e-02
7.741812e-02
7.735890e-02
7.729902e-02
7.723847e-02
7.717722e-02
7.711528e-02
7.705262e-02
7.698923e-02
7.692511e-02
7.686022e-02
7.679457e-02
7.672813e-02
7.666089e-02
7.659283e-02
7.652394e-02
7.645419e-02
7.638358e-02
7.631208e-02
7.623967e-02
7.616634e-02
7.609206e-02
7.601681e-02
7.594057e-02
7.586333e-02
7.578504e-02
7.570570e-02
7.562528e-02
7.554375e-02
7.546108e-02
7.537725e-02
7.529223e-02
7.520598e-02
7.511849e-02
7.502970e-02
7.493960e-02
7.484815e-02
7.475530e-02
7.466103e-02
7.456528e-02
7.446803e-02
7.436923e-02
7.426882e-02
7.416678e-02
7.406303e-02
7.395754e-02
7.385025e-02
7.374110e-02
7.363004e-02
7.351699e-02
7.340189e-02
7.328468e-02
7.316527e-02
7.304360e-02
7.291957e-02
7.279311e-02
7.266411e-02
7.253249e-02
7.239813e-02
7.226094e-02
7.212078e-02
7.197754e-02
7.183108e-02
7.168126e-02
7.152792e-02
7.137091e-02
7.121004e-02
7.104512e-02
7.087595e-02
7.070231e-02
7.052396e-02
7.034062e-02
7.015203e-02
6.995786e-02
6.975777e-02
6.955139e-02
6.933831e-02
6.911806e-02
6.889013e-02
6.865396e-02
6.840890e-02
6.815425e-02
6.788918e-02
6.761276e-02
6.732394e-02
6.702149e-02
6.670397e-02
6.636970e-02
6.601671e-02
6.564258e-02
6.524443e-02
6.481866e-02
6.436077e-02
6.386498e-02
6.332366e-02
6.272634e-02
6.205228e-02
6.102044e-02
5.013076e-02
6.818699e-03
2.285992e-04
2.659524e-06
0.000000e+00
0.000000e+00
0.000000e+00
0.000000e+00
0.000000e+00
0.000000e+00
0.000000e+00
0.000000e+00
0.000000e+00
0.000000e+00
0.000000e+00
0.000000e+00
0.000000e+00
0.000000e+00
0.000000e+00
0.000000e+00
0.000000e+00
0.000000e+00
0.000000e+00
0.000000e+00
0.000000e+00
0.000000e+00
0.000000e+00
0.000000e+00
0.000000e+00
0.000000e+00
0.000000e+00
0.000000e+00
0.000000e+00
0.000000e+00
0.000000e+00
0.000000e+00
0.000000e+00
0.000000e+00
0.000000e+00
0.000000e+00
0.000000e+00
0.000000e+00
0.000000e+00
0.000000e+00
0.000000e+00
0.000000e+00
0.000000e+00
0.000000e+00
0.000000e+00
0.000000e+00
0.000000e+00
0.000000e+00
0.000000e+00
0.000000e+00
0.000000e+00
0.000000e+00
0.000000e+00
0.000000e+00
0.000000e+00
0.000000e+00
0.000000e+00
0.000000e+00
0.000000e+00
0.000000e+00
0.000000e+00
0.000000e+00
0.000000e+00
0.000000e+00
0.000000e+00
0.000000e+00
0.000000e+00
0.000000e+00
0.000000e+00
0.000000e+00
0.000000e+00
0.000000e+00
0.000000e+00
0.000000e+00
0.000000e+00
0.000000e+00
0.000000e+00
0.000000e+00
0.000000e+00
0.000000e+00
0.000000e+00
0.000000e+00
0.000000e+00
0.000000e+00
0.000000e+00
0.000000e+00
0.000000e+00
0.000000e+00
0.000000e+00
0.000000e+00
0.000000e+00
7.776900e-02
7.771362e-02
7.765765e-02
7.760107e-02
7.754388e-02
7.748605e-02
7.742759e-02
7.736848e-02
7.730871e-02
7.724826e-02
7.718713e-02
7.712530e-02
7.706276e-02
7.699949e-02
7.693548e-02
7.687072e-02
7.680519e-02
7.673888e-02
7.667177e-02
7.660384e-02
7.653509e-02
7.646548e-02
7.639501e-02
7.632365e-02
7.625139e-02
7.617821e-02
7.610408e-02
7.602899e-02
7.595291e-02
7.587583e-02
7.579772e-02
7.571855e-02
7.563830e-02
7.555695e-02
7.547447e-02
7.539083e-02
7.530600e-02
7.521995e-02
7.513266e-02
7.504409e-02
7.495420e-02
7.486296e-02
7.477034e-02
7.467630e-02
7.458080e-02
7.448379e-02
7.438524e-02
7.428510e-02
7.418332e-02
7.407985e-02
7.397465e-02
7.386765e-02
7.375880e-02
7.364805e-02
7.353532e-02
7.342056e-02
7.330369e-02
7.318465e-02
7.306334e-02
7.293970e-02
7.281364e-02
7.268505e-02
7.255386e-02
7.241995e-02
7.228322e-02
7.214355e-02
7.200081e-02
7.185488e-02
7.170561e-02
7.155285e-02
7.139644e-02
7.123621e-02
7.107195e-02
7.090349e-02
7.073058e-02
7.055300e-02
7.037049e-02
7.018276e-02
6.998951e-02
6.979040e-02
6.958506e-02
6.937309e-02
6.915402e-02
6.892737e-02
6.869257e-02
6.844899e-02
6.819593e-02
6.793260e-02
6.765807e-02
6.737133e-02
6.707116e-02
6.675617e-02
6.642473e-02
6.607490e-02
6.570436e-02
6.531030e-02
6.488925e-02
6.443688e-02
6.394765e-02
6.341428e-02
6.282687e-02
6.216829e-02
6.127669e-02
5.450417e-02
1.104595e-02
4.057238e-04
7.072112e-06
0.000000e+00
0.000000e+00
0.000000e+00
0.000000e+00
0.000000e+00
0.000000e+00
0.000000e+00
0.000000e+00
0.000000e+00
0.000000e+00
0.000000e+00
0.000000e+00
0.000000e+00
0.000000e+00
0.000000e+00
0.000000e+00
0.000000e+00
0.000000e+00
0.000000e+00
0.000000e+00
0.000000e+00
0.000000e+00
0.000000e+00
0.000000e+00
0.000000e+00
0.000000e+00
0.000000e+00
0.000000e+00
0.000000e+00
0.000000e+00
0.000000e+00
0.000000e+00
0.000000e+00
0.000000e+00
0.000000e+00
0.000000e+00
0.000000e+00
0.000000e+00
0.000000e+00
0.000000e+00
0.000000e+00
0.000000e+00
0.000000e+00
0.000000e+00
0.000000e+00
0.000000e+00
0.000000e+00
0.000000e+00
0.000000e+00
0.000000e+00
0.000000e+00
0.000000e+00
0.000000e+00
0.000000e+00
0.000000e+00
0.000000e+00
0.000000e+00
0.000000e+00
0.000000e+00
0.000000e+00
0.000000e+00
0.000000e+00
0.000000e+00
0.000000e+00
0.000000e+00
0.000000e+00
0.000000e+00
0.000000e+00
0.000000e+00
0.000000e+00
0.000000e+00
0.000000e+00
0.000000e+00
0.000000e+00
0.000000e+00
0.000000e+00
0.000000e+00
0.000000e+00
0.000000e+00
0.000000e+00
0.000000e+00
0.000000e+00
0.000000e+00
0.000000e+00
0.000000e+00
0.000000e+00
0.000000e+00
0.000000e+00
0.000000e+00
0.000000e+00
0.000000e+00
0.000000e+00
0.000000e+00
7.762767e-02
7.757077e-02
7.751324e-02
7.745508e-02
7.739627e-02
7.733681e-02
7.727669e-02
7.721588e-02
7.715438e-02
7.709217e-02
7.702924e-02
7.696558e-02
7.690118e-02
7.683601e-02
7.677007e-02
7.670333e-02
7.663579e-02
7.656743e-02
7.649822e-02
7.642816e-02
7.635722e-02
7.628538e-02
7.621263e-02
7.613895e-02
7.606432e-02
7.598871e-02
7.591210e-02
7.583447e-02
7.575580e-02
7.567606e-02
7.559523e-02
7.551328e-02
7.543019e-02
7.534592e-02
7.526045e-02
7.517374e-02
7.508577e-02
7.499651e-02
7.490591e-02
7.481394e-02
7.472057e-02
7.462576e-02
7.452946e-02
7.443164e-02
7.433225e-02
7.423124e-02
7.412857e-02
7.402419e-02
7.391804e-02
7.381007e-02
7.370022e-02
7.358842e-02
7.347462e-02
7.335875e-02
7.324074e-02
7.312050e-02
7.299797e-02
7.287305e-02
7.274566e-02
7.261570e-02
7.248308e-02
7.234769e-02
7.220941e-02
7.206812e-02
7.192371e-02
7.177602e-02
7.162492e-02
7.147024e-02
7.131182e-02
7.114947e-02
7.098301e-02
7.081221e-02
7.063685e-02
7.045669e-02
7.027144e-02
7.008082e-02
6.988450e-02
6.968213e-02
6.947332e-02
6.925764e-02
6.903461e-02
6.880370e-02
6.856432e-02
6.831580e-02
6.805739e-02
6.778824e-02
6.750736e-02
6.721365e-02
6.690579e-02
6.658229e-02
6.624134e-02
6.588083e-02
6.549818e-02
6.509027e-02
6.465319e-02
6.418203e-02
6.367039e-02
6.310978e-02
6.248791e-02
6.176362e-02
5.987333e-02
3.301795e-02
2.044886e-03
5.740830e-05
3.901275e-09
0.000000e+00
0.000000e+00
0.000000e+00
0.000000e+00
0.000000e+00
0.000000e+00
0.000000e+00
0.000000e+00
0.000000e+00
0.000000e+00
0.000000e+00
0.000000e+00
0.000000e+00
0.000000e+00
0.000000e+00
0.000000e+00
0.000000e+00
0.000000e+00
0.000000e+00
0.000000e+00
0.000000e+00
0.000000e+00
0.000000e+00
0.000000e+00
0.000000e+00
0.000000e+00
0.000000e+00
0.000000e+00
0.000000e+00
0.000000e+00
0.000000e+00
0.000000e+00
0.000000e+00
0.000000e+00
0.000000e+00
0.000000e+00
0.000000e+00
0.000000e+00
0.000000e+00
0.000000e+00
0.000000e+00
0.000000e+00
0.000000e+00
0.000000e+00
0.000000e+00
0.000000e+00
0.000000e+00
0.000000e+00
0.000000e+00
0.000000e+00
0.000000e+00
0.000000e+00
0.000000e+00
0.000000e+00
0.000000e+00
0.000000e+00
0.000000e+00
0.000000e+00
0.000000e+00
0.000000e+00
0.000000e+00
0.000000e+00
0.000000e+00
0.000000e+00
0.000000e+00
0.000000e+00
0.000000e+00
0.000000e+00
0.000000e+00
0.000000e+00
0.000000e+00
0.000000e+00
0.000000e+00
0.000000e+00
0.000000e+00
0.000000e+00
0.000000e+00
0.000000e+00
0.000000e+00
0.000000e+00
0.000000e+00
0.000000e+00
0.000000e+00
0.000000e+00
0.000000e+00
0.000000e+00
0.000000e+00
0.000000e+00
0.000000e+00
0.000000e+00
0.000000e+00
0.000000e+00
0.000000e+00
0.000000e+00
0.000000e+00
7.745651e-02
7.739772e-02
7.733828e-02
7.727816e-02
7.721737e-02
7.715589e-02
7.709370e-02
7.703079e-02
7.696715e-02
7.690276e-02
7.683761e-02
7.677169e-02
7.670498e-02
7.663745e-02
7.656911e-02
7.649992e-02
7.642988e-02
7.635896e-02
7.628715e-02
7.621442e-02
7.614076e-02
7.606615e-02
7.599057e-02
7.591398e-02
7.583638e-02
7.575774e-02
7.567802e-02
7.559722e-02
7.551530e-02
7.543223e-02
7.534799e-02
7.526255e-02
7.517588e-02
7.508794e-02
7.499870e-02
7.490814e-02
7.481621e-02
7.472287e-02
7.462809e-02
7.453183e-02
7.443405e-02
7.433470e-02
7.423373e-02
7.413110e-02
7.402676e-02
7.392066e-02
7.381273e-02
7.370292e-02
7.359118e-02
7.347743e-02
7.336161e-02
7.324365e-02
7.312347e-02
7.300099e-02
7.287613e-02
7.274880e-02
7.261891e-02
7.248635e-02
7.235103e-02
7.221282e-02
7.207161e-02
7.192728e-02
7.177967e-02
7.162865e-02
7.147406e-02
7.131574e-02
7.115349e-02
7.098713e-02
7.081644e-02
7.064120e-02
7.046115e-02
7.027603e-02
7.008554e-02
6.988937e-02
6.968715e-02
6.947851e-02
6.926300e-02
6.904015e-02
6.880944e-02
6.857028e-02
6.832199e-02
6.806383e-02
6.779495e-02
6.751437e-02
6.722099e-02
6.691350e-02
6.659039e-02
6.624990e-02
6.588989e-02
6.550782e-02
6.510056e-02
6.466426e-02
6.419399e-02
6.368344e-02
6.312415e-02
6.250399e-02
6.178408e-02
5.999144e-02
3.436112e-02
2.219879e-03
6.314952e-05
1.549253e-08
0.000000e+00
0.000000e+00
0.000000e+00
0.000000e+00
0.000000e+00
0.000000e+00
0.000000e+00
0.000000e+00
0.000000e+00
0.000000e+00
0.000000e+00
0.000000e+00
0.000000e+00
0.000000e+00
0.000000e+00
0.000000e+00
0.000000e+00
0.000000e+00
0.000000e+00
0.000000e+00
0.000000e+00
0.000000e+00
0.000000e+00
0.000000e+00
0.000000e+00
0.000000e+00
0.000000e+00
0.000000e+00
0.000000e+00
0.000000e+00
0.000000e+00
0.000000e+00
0.000000e+00
0.000000e+00
0.000000e+00
0.000000e+00
0.000000e+00
0.000000e+00
0.000000e+00
0.000000e+00
0.000000e+00
0.000000e+00
0.000000e+00
0.000000e+00
0.000000e+00
0.000000e+00
0.000000e+00
0.000000e+00
0.000000e+00
0.000000e+00
0.000000e+00
0.000000e+00
0.000000e+00
0.000000e+00
0.000000e+00
0.000000e+00
0.000000e+00
0.000000e+00
0.000000e+00
0.000000e+00
0.000000e+00
0.000000e+00
0.000000e+00
0.000000e+00
0.000000e+00
0.000000e+00
0.000000e+00
0.000000e+00
0.000000e+00
0.000000e+00
0.000000e+00
0.000000e+00
0.000000e+00
0.000000e+00
0.000000e+00
0.000000e+00
0.000000e+00
0.000000e+00
0.000000e+00
0.000000e+00
0.000000e+00
0.000000e+00
0.000000e+00
0.000000e+00
0.000000e+00
0.000000e+00
0.000000e+00
0.000000e+00
0.000000e+00
0.000000e+00
0.000000e+00
0.000000e+00
0.000000e+00
0.000000e+00
0.000000e+00
0.000000e+00
0.000000e+00
0.000000e+00
7.727038e-02
7.720950e-02
7.714792e-02
7.708564e-02
7.702264e-02
7.695890e-02
7.689442e-02
7.682917e-02
7.676315e-02
7.669633e-02
7.662870e-02
7.656025e-02
7.649096e-02
7.642080e-02
7.634977e-02
7.627784e-02
7.620500e-02
7.613122e-02
7.605648e-02
7.598077e-02
7.590405e-02
7.582632e-02
7.574754e-02
7.566769e-02
7.558674e-02
7.550467e-02
7.542146e-02
7.533707e-02
7.525147e-02
7.516463e-02
7.507653e-02
7.498713e-02
7.489639e-02
7.480427e-02
7.471076e-02
7.461579e-02
7.451934e-02
7.442135e-02
7.432180e-02
7.422062e-02
7.411777e-02
7.401321e-02
7.390687e-02
7.379871e-02
7.368865e-02
7.357665e-02
7.346264e-02
7.334655e-02
7.322831e-02
7.310784e-02
7.298506e-02
7.285988e-02
7.273223e-02
7.260200e-02
7.246910e-02
7.233341e-02
7.219482e-02
7.205322e-02
7.190847e-02
7.176043e-02
7.160896e-02
7.145390e-02
7.129508e-02
7.113232e-02
7.096541e-02
7.079415e-02
7.061830e-02
7.043762e-02
7.025182e-02
7.006063e-02
6.986369e-02
6.966067e-02
6.945117e-02
6.923474e-02
6.901092e-02
6.877915e-02
6.853885e-02
6.828934e-02
6.802985e-02
6.775952e-02
6.747736e-02
6.718224e-02
6.687283e-02
6.654759e-02
6.620471e-02
6.584202e-02
6.545689e-02
6.504614e-02
6.460576e-02
6.413070e-02
6.361441e-02
6.304808e-02
6.241874e-02
6.167288e-02
5.925611e-02
2.727314e-02
1.436614e-03
3.785411e-05
0.000000e+00
0.000000e+00
0.000000e+00
0.000000e+00
0.000000e+00
0.000000e+00
0.000000e+00
0.000000e+00
0.000000e+00
0.000000e+00
0.000000e+00
0.000000e+00
0.000000e+00
0.000000e+00
0.000000e+00
0.000000e+00
0.000000e+00
0.000000e+00
0.000000e+00
0.000000e+00
0.000000e+00
0.000000e+00
0.000000e+00
0.000000e+00
0.000000e+00
0.000000e+00
0.000000e+00
0.000000e+00
0.000000e+00
0.000000e+00
0.000000e+00
0.000000e+00
0.000000e+00
0.000000e+00
0.000000e+00
0.000000e+00
0.000000e+00
0.000000e+00
0.000000e+00
0.000000e+00
0.000000e+00
0.000000e+00
0.000000e+00
0.000000e+00
0.000000e+00
0.000000e+00
0.000000e+00
0.000000e+00
0.000000e+00
0.000000e+00
0.000000e+00
0.000000e+00
0.000000e+00
0.000000e+00
0.000000e+00
0.000000e+00
0.000000e+00
0.000000e+00
0.000000e+00
0.000000e+00
0.000000e+00
0.000000e+00
0.000000e+00
0.000000e+00
0.000000e+00
0.000000e+00
0.000000e+00
0.000000e+00
0.000000e+00
0.000000e+00
0.000000e+00
0.000000e+00
0.000000e+00
0.000000e+00
0.000000e+00
0.000000e+00
0.000000e+00
0.000000e+00
0.000000e+00
0.000000e+00
0.000000e+00
0.000000e+00
0.000000e+00
0.000000e+00
0.000000e+00
0.000000e+00
0.000000e+00
0.000000e+00
0.000000e+00
0.000000e+00
0.000000e+00
0.000000e+00
0.000000e+00
0.000000e+00
0.000000e+00
0.000000e+00
0.000000e+00
0.000000e+00
0.000000e+00
0.000000e+00
0.000000e+00
0.000000e+00
7.708717e-02
7.702419e-02
7.696047e-02
7.689601e-02
7.683078e-02
7.676477e-02
7.669797e-02
7.663037e-02
7.656194e-02
7.649266e-02
7.642253e-02
7.635152e-02
7.627961e-02
7.620679e-02
7.613303e-02
7.605832e-02
7.598263e-02
7.590594e-02
7.582823e-02
7.574948e-02
7.566965e-02
7.558873e-02
7.550669e-02
7.542351e-02
7.533914e-02
7.525357e-02
7.516677e-02
7.507870e-02
7.498933e-02
7.489862e-02
7.480654e-02
7.471306e-02
7.461813e-02
7.452171e-02
7.442377e-02
7.432425e-02
7.422311e-02
7.412031e-02
7.401578e-02
7.390949e-02
7.380137e-02
7.369137e-02
7.357942e-02
7.346545e-02
7.334941e-02
7.323122e-02
7.311081e-02
7.298808e-02
7.286297e-02
7.273538e-02
7.260522e-02
7.247238e-02
7.233676e-02
7.219824e-02
7.205672e-02
7.191204e-02
7.176409e-02
7.161271e-02
7.145774e-02
7.129901e-02
7.113634e-02
7.096954e-02
7.079839e-02
7.062266e-02
7.044209e-02
7.025643e-02
7.006537e-02
6.986858e-02
6.966571e-02
6.945637e-02
6.924012e-02
6.901648e-02
6.878492e-02
6.854483e-02
6.829555e-02
6.803632e-02
6.776626e-02
6.748441e-02
6.718961e-02
6.688057e-02
6.655574e-02
6.621332e-02
6.585114e-02
6.546660e-02
6.505651e-02
6.461691e-02
6.414277e-02
6.362758e-02