
    FoamFile
    {
        version     2.0;
        format      ascii;
        class       volScalarField;
        location    "0";
        object     H2O2;
    }

dimensions      [0 0 0 0 0 0 0 ];

    internalField   nonuniform List<scalar>
    8000
(
5.292850e-07
5.323528e-07
5.354762e-07
5.386566e-07
5.418956e-07
5.451948e-07
5.485559e-07
5.519806e-07
5.554707e-07
5.590281e-07
5.626548e-07
5.663526e-07
5.701239e-07
5.739706e-07
5.778952e-07
5.818999e-07
5.859872e-07
5.901597e-07
5.944201e-07
5.987711e-07
6.032157e-07
6.077568e-07
6.123977e-07
6.171417e-07
6.219922e-07
6.269527e-07
6.320273e-07
6.372196e-07
6.425341e-07
6.479748e-07
6.535466e-07
6.592540e-07
6.651022e-07
6.710963e-07
6.772421e-07
6.835452e-07
6.900119e-07
6.966486e-07
7.034622e-07
7.104597e-07
7.176489e-07
7.250378e-07
7.326348e-07
7.404490e-07
7.484897e-07
7.567673e-07
7.652922e-07
7.740760e-07
7.831306e-07
7.924690e-07
8.021048e-07
8.120526e-07
8.223281e-07
8.329479e-07
8.439298e-07
8.552928e-07
8.670576e-07
8.792460e-07
8.918817e-07
9.049902e-07
9.185989e-07
9.327375e-07
9.474381e-07
9.627353e-07
9.786668e-07
9.952738e-07
1.012601e-06
1.030696e-06
1.049614e-06
1.069411e-06
1.090153e-06
1.111908e-06
1.134756e-06
1.158782e-06
1.184080e-06
1.210757e-06
1.238929e-06
1.268727e-06
1.300299e-06
1.333810e-06
1.369445e-06
1.407414e-06
1.447956e-06
1.491342e-06
1.537879e-06
1.587922e-06
1.641876e-06
1.700206e-06
1.763447e-06
1.832215e-06
1.907214e-06
1.989241e-06
2.079186e-06
2.178002e-06
2.286626e-06
2.405737e-06
2.533575e-06
2.599746e-06
1.127630e-06
3.974137e-07
2.415486e-07
2.101241e-09
0.000000e+00
0.000000e+00
0.000000e+00
0.000000e+00
0.000000e+00
0.000000e+00
0.000000e+00
0.000000e+00
0.000000e+00
0.000000e+00
0.000000e+00
0.000000e+00
0.000000e+00
0.000000e+00
0.000000e+00
0.000000e+00
0.000000e+00
0.000000e+00
0.000000e+00
0.000000e+00
0.000000e+00
0.000000e+00
0.000000e+00
0.000000e+00
0.000000e+00
0.000000e+00
0.000000e+00
0.000000e+00
0.000000e+00
0.000000e+00
0.000000e+00
0.000000e+00
0.000000e+00
0.000000e+00
0.000000e+00
0.000000e+00
0.000000e+00
0.000000e+00
0.000000e+00
0.000000e+00
0.000000e+00
0.000000e+00
0.000000e+00
0.000000e+00
0.000000e+00
0.000000e+00
0.000000e+00
0.000000e+00
0.000000e+00
0.000000e+00
0.000000e+00
0.000000e+00
0.000000e+00
0.000000e+00
0.000000e+00
0.000000e+00
0.000000e+00
0.000000e+00
0.000000e+00
0.000000e+00
0.000000e+00
0.000000e+00
0.000000e+00
0.000000e+00
0.000000e+00
0.000000e+00
0.000000e+00
0.000000e+00
0.000000e+00
0.000000e+00
0.000000e+00
0.000000e+00
0.000000e+00
0.000000e+00
0.000000e+00
0.000000e+00
0.000000e+00
0.000000e+00
0.000000e+00
0.000000e+00
0.000000e+00
0.000000e+00
0.000000e+00
0.000000e+00
0.000000e+00
0.000000e+00
0.000000e+00
0.000000e+00
0.000000e+00
0.000000e+00
0.000000e+00
0.000000e+00
0.000000e+00
0.000000e+00
0.000000e+00
0.000000e+00
0.000000e+00
0.000000e+00
5.204711e-07
5.233820e-07
5.263443e-07
5.293593e-07
5.324285e-07
5.355532e-07
5.387350e-07
5.419755e-07
5.452762e-07
5.486388e-07
5.520651e-07
5.555568e-07
5.591159e-07
5.627443e-07
5.664439e-07
5.702170e-07
5.740656e-07
5.779921e-07
5.819988e-07
5.860882e-07
5.902628e-07
5.945253e-07
5.988786e-07
6.033255e-07
6.078691e-07
6.125124e-07
6.172589e-07
6.221121e-07
6.270754e-07
6.321527e-07
6.373481e-07
6.426655e-07
6.481094e-07
6.536844e-07
6.593952e-07
6.652469e-07
6.712447e-07
6.773942e-07
6.837013e-07
6.901721e-07
6.968130e-07
7.036310e-07
7.106331e-07
7.178271e-07
7.252210e-07
7.328232e-07
7.406427e-07
7.486892e-07
7.569726e-07
7.655038e-07
7.742940e-07
7.833554e-07
7.927009e-07
8.023441e-07
8.122998e-07
8.225835e-07
8.332119e-07
8.442028e-07
8.555755e-07
8.673503e-07
8.795494e-07
8.921963e-07
9.053167e-07
9.189380e-07
9.330900e-07
9.478047e-07
9.631169e-07
9.790645e-07
9.956884e-07
1.013034e-06
1.031148e-06
1.050087e-06
1.069906e-06
1.090672e-06
1.112454e-06
1.135329e-06
1.159385e-06
1.184715e-06
1.211427e-06
1.239637e-06
1.269477e-06
1.301094e-06
1.334655e-06
1.370344e-06
1.408374e-06
1.448982e-06
1.492440e-06
1.539059e-06
1.589192e-06
1.643247e-06
1.701690e-06
1.765059e-06
1.833971e-06
1.909131e-06
1.991341e-06
2.081492e-06
2.180536e-06
2.289410e-06
2.408779e-06
2.536688e-06
2.596297e-06
1.061906e-06
4.010635e-07
2.344852e-07
8.305649e-10
0.000000e+00
0.000000e+00
0.000000e+00
0.000000e+00
0.000000e+00
0.000000e+00
0.000000e+00
0.000000e+00
0.000000e+00
0.000000e+00
0.000000e+00
0.000000e+00
0.000000e+00
0.000000e+00
0.000000e+00
0.000000e+00
0.000000e+00
0.000000e+00
0.000000e+00
0.000000e+00
0.000000e+00
0.000000e+00
0.000000e+00
0.000000e+00
0.000000e+00
0.000000e+00
0.000000e+00
0.000000e+00
0.000000e+00
0.000000e+00
0.000000e+00
0.000000e+00
0.000000e+00
0.000000e+00
0.000000e+00
0.000000e+00
0.000000e+00
0.000000e+00
0.000000e+00
0.000000e+00
0.000000e+00
0.000000e+00
0.000000e+00
0.000000e+00
0.000000e+00
0.000000e+00
0.000000e+00
0.000000e+00
0.000000e+00
0.000000e+00
0.000000e+00
0.000000e+00
0.000000e+00
0.000000e+00
0.000000e+00
0.000000e+00
0.000000e+00
0.000000e+00
0.000000e+00
0.000000e+00
0.000000e+00
0.000000e+00
0.000000e+00
0.000000e+00
0.000000e+00
0.000000e+00
0.000000e+00
0.000000e+00
0.000000e+00
0.000000e+00
0.000000e+00
0.000000e+00
0.000000e+00
0.000000e+00
0.000000e+00
0.000000e+00
0.000000e+00
0.000000e+00
0.000000e+00
0.000000e+00
0.000000e+00
0.000000e+00
0.000000e+00
0.000000e+00
0.000000e+00
0.000000e+00
0.000000e+00
0.000000e+00
0.000000e+00
0.000000e+00
0.000000e+00
0.000000e+00
0.000000e+00
0.000000e+00
0.000000e+00
5.133240e-07
5.161106e-07
5.189453e-07
5.218295e-07
5.247643e-07
5.277512e-07
5.307914e-07
5.338865e-07
5.370378e-07
5.402469e-07
5.435154e-07
5.468449e-07
5.502371e-07
5.536939e-07
5.572170e-07
5.608083e-07
5.644698e-07
5.682036e-07
5.720118e-07
5.758966e-07
5.798604e-07
5.839056e-07
5.880346e-07
5.922501e-07
5.965549e-07
6.009516e-07
6.054435e-07
6.100334e-07
6.147247e-07
6.195208e-07
6.244251e-07
6.294414e-07
6.345736e-07
6.398256e-07
6.452018e-07
6.507066e-07
6.563446e-07
6.621208e-07
6.680404e-07
6.741086e-07
6.803312e-07
6.867143e-07
6.932640e-07
6.999870e-07
7.068904e-07
7.139816e-07
7.212682e-07
7.287587e-07
7.364616e-07
7.443864e-07
7.525426e-07
7.609408e-07
7.695920e-07
7.785078e-07
7.877007e-07
7.971840e-07
8.069719e-07
8.170793e-07
8.275225e-07
8.383186e-07
8.494860e-07
8.610446e-07
8.730155e-07
8.854215e-07
8.982871e-07
9.116388e-07
9.255050e-07
9.399166e-07
9.549070e-07
9.705122e-07
9.867716e-07
1.003728e-06
1.021427e-06
1.039921e-06
1.059265e-06
1.079520e-06
1.100753e-06
1.123037e-06
1.146455e-06
1.171096e-06
1.197060e-06
1.224458e-06
1.253415e-06
1.284069e-06
1.316576e-06
1.351110e-06
1.387869e-06
1.427075e-06
1.468984e-06
1.513883e-06
1.562102e-06
1.614020e-06
1.670070e-06
1.730751e-06
1.796636e-06
1.868384e-06
1.946744e-06
2.032561e-06
2.126761e-06
2.230305e-06
2.344054e-06
2.468203e-06
2.591234e-06
2.308919e-06
3.439423e-07
3.741829e-07
1.010510e-07
0.000000e+00
0.000000e+00
0.000000e+00
0.000000e+00
0.000000e+00
0.000000e+00
0.000000e+00
0.000000e+00
0.000000e+00
0.000000e+00
0.000000e+00
0.000000e+00
0.000000e+00
0.000000e+00
0.000000e+00
0.000000e+00
0.000000e+00
0.000000e+00
0.000000e+00
0.000000e+00
0.000000e+00
0.000000e+00
0.000000e+00
0.000000e+00
0.000000e+00
0.000000e+00
0.000000e+00
0.000000e+00
0.000000e+00
0.000000e+00
0.000000e+00
0.000000e+00
0.000000e+00
0.000000e+00
0.000000e+00
0.000000e+00
0.000000e+00
0.000000e+00
0.000000e+00
0.000000e+00
0.000000e+00
0.000000e+00
0.000000e+00
0.000000e+00
0.000000e+00
0.000000e+00
0.000000e+00
0.000000e+00
0.000000e+00
0.000000e+00
0.000000e+00
0.000000e+00
0.000000e+00
0.000000e+00
0.000000e+00
0.000000e+00
0.000000e+00
0.000000e+00
0.000000e+00
0.000000e+00
0.000000e+00
0.000000e+00
0.000000e+00
0.000000e+00
0.000000e+00
0.000000e+00
0.000000e+00
0.000000e+00
0.000000e+00
0.000000e+00
0.000000e+00
0.000000e+00
0.000000e+00
0.000000e+00
0.000000e+00
0.000000e+00
0.000000e+00
0.000000e+00
0.000000e+00
0.000000e+00
0.000000e+00
0.000000e+00
0.000000e+00
0.000000e+00
0.000000e+00
0.000000e+00
0.000000e+00
0.000000e+00
0.000000e+00
0.000000e+00
0.000000e+00
0.000000e+00
0.000000e+00
5.083213e-07
5.110224e-07
5.137695e-07
5.165637e-07
5.194063e-07
5.222986e-07
5.252417e-07
5.282370e-07
5.312860e-07
5.343900e-07
5.375505e-07
5.407691e-07
5.440473e-07
5.473868e-07
5.507893e-07
5.542566e-07
5.577905e-07
5.613930e-07
5.650660e-07
5.688116e-07
5.726320e-07
5.765294e-07
5.805061e-07
5.845646e-07
5.887074e-07
5.929371e-07
5.972565e-07
6.016683e-07
6.061757e-07
6.107818e-07
6.154897e-07
6.203030e-07
6.252251e-07
6.302598e-07
6.354109e-07
6.406827e-07
6.460793e-07
6.516052e-07
6.572652e-07
6.630641e-07
6.690072e-07
6.750999e-07
6.813479e-07
6.877574e-07
6.943345e-07
7.010861e-07
7.080193e-07
7.151413e-07
7.224602e-07
7.299843e-07
7.377223e-07
7.456836e-07
7.538781e-07
7.623163e-07
7.710092e-07
7.799688e-07
7.892076e-07
7.987390e-07
8.085772e-07
8.187376e-07
8.292364e-07
8.400910e-07
8.513200e-07
8.629435e-07
8.749829e-07
8.874612e-07
9.004032e-07
9.138357e-07
9.277877e-07
9.422901e-07
9.573769e-07
9.730847e-07
9.894533e-07
1.006526e-06
1.024350e-06
1.042977e-06
1.062463e-06
1.082871e-06
1.104268e-06
1.126729e-06
1.150337e-06
1.175184e-06
1.201371e-06
1.229012e-06
1.258232e-06
1.289174e-06
1.321994e-06
1.356872e-06
1.394009e-06
1.433633e-06
1.476002e-06
1.521413e-06
1.570201e-06
1.622753e-06
1.679513e-06
1.740991e-06
1.807774e-06
1.880533e-06
1.960034e-06
2.047136e-06
2.142776e-06
2.247910e-06
2.363360e-06
2.488976e-06
2.604285e-06
2.032963e-06
3.269748e-07
3.368773e-07
6.009275e-08
0.000000e+00
0.000000e+00
0.000000e+00
0.000000e+00
0.000000e+00
0.000000e+00
0.000000e+00
0.000000e+00
0.000000e+00
0.000000e+00
0.000000e+00
0.000000e+00
0.000000e+00
0.000000e+00
0.000000e+00
0.000000e+00
0.000000e+00
0.000000e+00
0.000000e+00
0.000000e+00
0.000000e+00
0.000000e+00
0.000000e+00
0.000000e+00
0.000000e+00
0.000000e+00
0.000000e+00
0.000000e+00
0.000000e+00
0.000000e+00
0.000000e+00
0.000000e+00
0.000000e+00
0.000000e+00
0.000000e+00
0.000000e+00
0.000000e+00
0.000000e+00
0.000000e+00
0.000000e+00
0.000000e+00
0.000000e+00
0.000000e+00
0.000000e+00
0.000000e+00
0.000000e+00
0.000000e+00
0.000000e+00
0.000000e+00
0.000000e+00
0.000000e+00
0.000000e+00
0.000000e+00
0.000000e+00
0.000000e+00
0.000000e+00
0.000000e+00
0.000000e+00
0.000000e+00
0.000000e+00
0.000000e+00
0.000000e+00
0.000000e+00
0.000000e+00
0.000000e+00
0.000000e+00
0.000000e+00
0.000000e+00
0.000000e+00
0.000000e+00
0.000000e+00
0.000000e+00
0.000000e+00
0.000000e+00
0.000000e+00
0.000000e+00
0.000000e+00
0.000000e+00
0.000000e+00
0.000000e+00
0.000000e+00
0.000000e+00
0.000000e+00
0.000000e+00
0.000000e+00
0.000000e+00
0.000000e+00
0.000000e+00
0.000000e+00
0.000000e+00
0.000000e+00
5.057524e-07
5.084102e-07
5.111128e-07
5.138614e-07
5.166573e-07
5.195015e-07
5.223954e-07
5.253402e-07
5.283373e-07
5.313881e-07
5.344939e-07
5.376563e-07
5.408769e-07
5.441571e-07
5.474987e-07
5.509033e-07
5.543728e-07
5.579089e-07
5.615137e-07
5.651891e-07
5.689372e-07
5.727601e-07
5.766601e-07
5.806395e-07
5.847007e-07
5.888463e-07
5.930790e-07
5.974013e-07
6.018164e-07
6.063270e-07
6.109364e-07
6.156477e-07
6.204645e-07
6.253903e-07
6.304288e-07
6.355839e-07
6.408597e-07
6.462605e-07
6.517908e-07
6.574553e-07
6.632589e-07
6.692069e-07
6.753047e-07
6.815580e-07
6.879729e-07
6.945557e-07
7.013132e-07
7.082525e-07
7.153810e-07
7.227066e-07
7.302376e-07
7.379829e-07
7.459517e-07
7.541542e-07
7.626006e-07
7.713022e-07
7.802708e-07
7.895191e-07
7.990604e-07
8.089091e-07
8.190805e-07
8.295908e-07
8.404575e-07
8.516993e-07
8.633362e-07
8.753897e-07
8.878830e-07
9.008409e-07
9.142902e-07
9.282599e-07
9.427812e-07
9.578880e-07
9.736170e-07
9.900083e-07
1.007105e-06
1.024955e-06
1.043609e-06
1.063125e-06
1.083564e-06
1.104995e-06
1.127493e-06
1.151141e-06
1.176031e-06
1.202264e-06
1.229955e-06
1.259231e-06
1.290232e-06
1.323117e-06
1.358067e-06
1.395283e-06
1.434993e-06
1.477459e-06
1.522975e-06
1.571882e-06
1.624566e-06
1.681474e-06
1.743119e-06
1.810088e-06
1.883058e-06
1.962797e-06
2.050167e-06
2.146107e-06
2.251572e-06
2.367373e-06
2.493269e-06
2.606215e-06
1.960917e-06
3.309929e-07
3.283788e-07
5.235552e-08
0.000000e+00
0.000000e+00
0.000000e+00
0.000000e+00
0.000000e+00
0.000000e+00
0.000000e+00
0.000000e+00
0.000000e+00
0.000000e+00
0.000000e+00
0.000000e+00
0.000000e+00
0.000000e+00
0.000000e+00
0.000000e+00
0.000000e+00
0.000000e+00
0.000000e+00
0.000000e+00
0.000000e+00
0.000000e+00
0.000000e+00
0.000000e+00
0.000000e+00
0.000000e+00
0.000000e+00
0.000000e+00
0.000000e+00
0.000000e+00
0.000000e+00
0.000000e+00
0.000000e+00
0.000000e+00
0.000000e+00
0.000000e+00
0.000000e+00
0.000000e+00
0.000000e+00
0.000000e+00
0.000000e+00
0.000000e+00
0.000000e+00
0.000000e+00
0.000000e+00
0.000000e+00
0.000000e+00
0.000000e+00
0.000000e+00
0.000000e+00
0.000000e+00
0.000000e+00
0.000000e+00
0.000000e+00
0.000000e+00
0.000000e+00
0.000000e+00
0.000000e+00
0.000000e+00
0.000000e+00
0.000000e+00
0.000000e+00
0.000000e+00
0.000000e+00
0.000000e+00
0.000000e+00
0.000000e+00
0.000000e+00
0.000000e+00
0.000000e+00
0.000000e+00
0.000000e+00
0.000000e+00
0.000000e+00
0.000000e+00
0.000000e+00
0.000000e+00
0.000000e+00
0.000000e+00
0.000000e+00
0.000000e+00
0.000000e+00
0.000000e+00
0.000000e+00
0.000000e+00
0.000000e+00
0.000000e+00
0.000000e+00
0.000000e+00
0.000000e+00
5.057524e-07
5.084102e-07
5.111128e-07
5.138614e-07
5.166573e-07
5.195015e-07
5.223954e-07
5.253402e-07
5.283373e-07
5.313881e-07
5.344939e-07
5.376563e-07
5.408769e-07
5.441571e-07
5.474987e-07
5.509033e-07
5.543728e-07
5.579089e-07
5.615137e-07
5.651891e-07
5.689372e-07
5.727601e-07
5.766601e-07
5.806395e-07
5.847007e-07
5.888463e-07
5.930790e-07
5.974013e-07
6.018164e-07
6.063270e-07
6.109364e-07
6.156477e-07
6.204645e-07
6.253903e-07
6.304288e-07
6.355839e-07
6.408597e-07
6.462605e-07
6.517908e-07
6.574553e-07
6.632589e-07
6.692069e-07
6.753047e-07
6.815580e-07
6.879729e-07
6.945557e-07
7.013132e-07
7.082525e-07
7.153810e-07
7.227066e-07
7.302376e-07
7.379829e-07
7.459517e-07
7.541542e-07
7.626006e-07
7.713022e-07
7.802708e-07
7.895191e-07
7.990604e-07
8.089091e-07
8.190805e-07
8.295908e-07
8.404575e-07
8.516993e-07
8.633362e-07
8.753897e-07
8.878830e-07
9.008409e-07
9.142902e-07
9.282599e-07
9.427812e-07
9.578880e-07
9.736170e-07
9.900083e-07
1.007105e-06
1.024955e-06
1.043609e-06
1.063125e-06
1.083564e-06
1.104995e-06
1.127493e-06
1.151141e-06
1.176031e-06
1.202264e-06
1.229955e-06
1.259231e-06
1.290232e-06
1.323117e-06
1.358067e-06
1.395283e-06
1.434993e-06
1.477459e-06
1.522975e-06
1.571882e-06
1.624566e-06
1.681474e-06
1.743119e-06
1.810088e-06
1.883058e-06
1.962797e-06
2.050167e-06
2.146107e-06
2.251572e-06
2.367373e-06
2.493269e-06
2.606215e-06
1.960917e-06
3.309929e-07
3.283788e-07
5.235552e-08
0.000000e+00
0.000000e+00
0.000000e+00
0.000000e+00
0.000000e+00
0.000000e+00
0.000000e+00
0.000000e+00
0.000000e+00
0.000000e+00
0.000000e+00
0.000000e+00
0.000000e+00
0.000000e+00
0.000000e+00
0.000000e+00
0.000000e+00
0.000000e+00
0.000000e+00
0.000000e+00
0.000000e+00
0.000000e+00
0.000000e+00
0.000000e+00
0.000000e+00
0.000000e+00
0.000000e+00
0.000000e+00
0.000000e+00
0.000000e+00
0.000000e+00
0.000000e+00
0.000000e+00
0.000000e+00
0.000000e+00
0.000000e+00
0.000000e+00
0.000000e+00
0.000000e+00
0.000000e+00
0.000000e+00
0.000000e+00
0.000000e+00
0.000000e+00
0.000000e+00
0.000000e+00
0.000000e+00
0.000000e+00
0.000000e+00
0.000000e+00
0.000000e+00
0.000000e+00
0.000000e+00
0.000000e+00
0.000000e+00
0.000000e+00
0.000000e+00
0.000000e+00
0.000000e+00
0.000000e+00
0.000000e+00
0.000000e+00
0.000000e+00
0.000000e+00
0.000000e+00
0.000000e+00
0.000000e+00
0.000000e+00
0.000000e+00
0.000000e+00
0.000000e+00
0.000000e+00
0.000000e+00
0.000000e+00
0.000000e+00
0.000000e+00
0.000000e+00
0.000000e+00
0.000000e+00
0.000000e+00
0.000000e+00
0.000000e+00
0.000000e+00
0.000000e+00
0.000000e+00
0.000000e+00
0.000000e+00
0.000000e+00
0.000000e+00
0.000000e+00
5.083213e-07
5.110224e-07
5.137695e-07
5.165637e-07
5.194063e-07
5.222986e-07
5.252417e-07
5.282370e-07
5.312860e-07
5.343900e-07
5.375505e-07
5.407691e-07
5.440473e-07
5.473868e-07
5.507893e-07
5.542566e-07
5.577905e-07
5.613930e-07
5.650660e-07
5.688116e-07
5.726320e-07
5.765294e-07
5.805061e-07
5.845646e-07
5.887074e-07
5.929371e-07
5.972565e-07
6.016683e-07
6.061757e-07
6.107818e-07
6.154897e-07
6.203030e-07
6.252251e-07
6.302598e-07
6.354109e-07
6.406827e-07
6.460793e-07
6.516052e-07
6.572652e-07
6.630641e-07
6.690072e-07
6.750999e-07
6.813479e-07
6.877574e-07
6.943345e-07
7.010861e-07
7.080193e-07
7.151413e-07
7.224602e-07
7.299843e-07
7.377223e-07
7.456836e-07
7.538781e-07
7.623163e-07
7.710092e-07
7.799688e-07
7.892076e-07
7.987390e-07
8.085772e-07
8.187376e-07
8.292364e-07
8.400910e-07
8.513200e-07
8.629435e-07
8.749829e-07
8.874612e-07
9.004032e-07
9.138357e-07
9.277877e-07
9.422901e-07
9.573769e-07
9.730847e-07
9.894533e-07
1.006526e-06
1.024350e-06
1.042977e-06
1.062463e-06
1.082871e-06
1.104268e-06
1.126729e-06
1.150337e-06
1.175184e-06
1.201371e-06
1.229012e-06
1.258232e-06
1.289174e-06
1.321994e-06
1.356872e-06
1.394009e-06
1.433633e-06
1.476002e-06
1.521413e-06
1.570201e-06
1.622753e-06
1.679513e-06
1.740991e-06
1.807774e-06
1.880533e-06
1.960034e-06
2.047136e-06
2.142776e-06
2.247910e-06
2.363360e-06
2.488976e-06
2.604285e-06
2.032963e-06
3.269748e-07
3.368773e-07
6.009275e-08
0.000000e+00
0.000000e+00
0.000000e+00
0.000000e+00
0.000000e+00
0.000000e+00
0.000000e+00
0.000000e+00
0.000000e+00
0.000000e+00
0.000000e+00
0.000000e+00
0.000000e+00
0.000000e+00
0.000000e+00
0.000000e+00
0.000000e+00
0.000000e+00
0.000000e+00
0.000000e+00
0.000000e+00
0.000000e+00
0.000000e+00
0.000000e+00
0.000000e+00
0.000000e+00
0.000000e+00
0.000000e+00
0.000000e+00
0.000000e+00
0.000000e+00
0.000000e+00
0.000000e+00
0.000000e+00
0.000000e+00
0.000000e+00
0.000000e+00
0.000000e+00
0.000000e+00
0.000000e+00
0.000000e+00
0.000000e+00
0.000000e+00
0.000000e+00
0.000000e+00
0.000000e+00
0.000000e+00
0.000000e+00
0.000000e+00
0.000000e+00
0.000000e+00
0.000000e+00
0.000000e+00
0.000000e+00
0.000000e+00
0.000000e+00
0.000000e+00
0.000000e+00
0.000000e+00
0.000000e+00
0.000000e+00
0.000000e+00
0.000000e+00
0.000000e+00
0.000000e+00
0.000000e+00
0.000000e+00
0.000000e+00
0.000000e+00
0.000000e+00
0.000000e+00
0.000000e+00
0.000000e+00
0.000000e+00
0.000000e+00
0.000000e+00
0.000000e+00
0.000000e+00
0.000000e+00
0.000000e+00
0.000000e+00
0.000000e+00
0.000000e+00
0.000000e+00
0.000000e+00
0.000000e+00
0.000000e+00
0.000000e+00
0.000000e+00
0.000000e+00
0.000000e+00
5.133240e-07
5.161106e-07
5.189453e-07
5.218295e-07
5.247643e-07
5.277512e-07
5.307914e-07
5.338865e-07
5.370378e-07
5.402469e-07
5.435154e-07
5.468449e-07
5.502371e-07
5.536939e-07
5.572170e-07
5.608083e-07
5.644698e-07
5.682036e-07
5.720118e-07
5.758966e-07
5.798604e-07
5.839056e-07
5.880346e-07
5.922501e-07
5.965549e-07
6.009516e-07
6.054435e-07
6.100334e-07
6.147247e-07
6.195208e-07
6.244251e-07
6.294414e-07
6.345736e-07
6.398256e-07
6.452018e-07
6.507066e-07
6.563446e-07
6.621208e-07
6.680404e-07
6.741086e-07
6.803312e-07
6.867143e-07
6.932640e-07
6.999870e-07
7.068904e-07
7.139816e-07
7.212682e-07
7.287587e-07
7.364616e-07
7.443864e-07
7.525426e-07
7.609408e-07
7.695920e-07
7.785078e-07
7.877007e-07
7.971840e-07
8.069719e-07
8.170793e-07
8.275225e-07
8.383186e-07
8.494860e-07
8.610446e-07
8.730155e-07
8.854215e-07
8.982871e-07
9.116388e-07
9.255050e-07
9.399166e-07
9.549070e-07
9.705122e-07
9.867716e-07
1.003728e-06
1.021427e-06
1.039921e-06
1.059265e-06
1.079520e-06
1.100753e-06
1.123037e-06
1.146455e-06
1.171096e-06
1.197060e-06
1.224458e-06
1.253415e-06
1.284069e-06
1.316576e-06
1.351110e-06
1.387869e-06
1.427075e-06
1.468984e-06
1.513883e-06
1.562102e-06
1.614020e-06
1.670070e-06
1.730751e-06
1.796636e-06
1.868384e-06
1.946744e-06
2.032561e-06
2.126761e-06
2.230305e-06
2.344054e-06
2.468203e-06
2.591234e-06
2.308919e-06
3.439423e-07
3.741829e-07
1.010510e-07
0.000000e+00
0.000000e+00
0.000000e+00
0.000000e+00
0.000000e+00
0.000000e+00
0.000000e+00
0.000000e+00
0.000000e+00
0.000000e+00
0.000000e+00
0.000000e+00
0.000000e+00
0.000000e+00
0.000000e+00
0.000000e+00
0.000000e+00
0.000000e+00
0.000000e+00
0.000000e+00
0.000000e+00
0.000000e+00
0.000000e+00
0.000000e+00
0.000000e+00
0.000000e+00
0.000000e+00
0.000000e+00
0.000000e+00
0.000000e+00
0.000000e+00
0.000000e+00
0.000000e+00
0.000000e+00
0.000000e+00
0.000000e+00
0.000000e+00
0.000000e+00
0.000000e+00
0.000000e+00
0.000000e+00
0.000000e+00
0.000000e+00
0.000000e+00
0.000000e+00
0.000000e+00
0.000000e+00
0.000000e+00
0.000000e+00
0.000000e+00
0.000000e+00
0.000000e+00
0.000000e+00
0.000000e+00
0.000000e+00
0.000000e+00
0.000000e+00
0.000000e+00
0.000000e+00
0.000000e+00
0.000000e+00
0.000000e+00
0.000000e+00
0.000000e+00
0.000000e+00
0.000000e+00
0.000000e+00
0.000000e+00
0.000000e+00
0.000000e+00
0.000000e+00
0.000000e+00
0.000000e+00
0.000000e+00
0.000000e+00
0.000000e+00
0.000000e+00
0.000000e+00
0.000000e+00
0.000000e+00
0.000000e+00
0.000000e+00
0.000000e+00
0.000000e+00
0.000000e+00
0.000000e+00
0.000000e+00
0.000000e+00
0.000000e+00
0.000000e+00
0.000000e+00
0.000000e+00
0.000000e+00
5.204711e-07
5.233820e-07
5.263443e-07
5.293593e-07
5.324285e-07
5.355532e-07
5.387350e-07
5.419755e-07
5.452762e-07
5.486388e-07
5.520651e-07
5.555568e-07
5.591159e-07
5.627443e-07
5.664439e-07
5.702170e-07
5.740656e-07
5.779921e-07
5.819988e-07
5.860882e-07
5.902628e-07
5.945253e-07
5.988786e-07
6.033255e-07
6.078691e-07
6.125124e-07
6.172589e-07
6.221121e-07
6.270754e-07
6.321527e-07
6.373481e-07
6.426655e-07
6.481094e-07
6.536844e-07
6.593952e-07
6.652469e-07
6.712447e-07
6.773942e-07
6.837013e-07
6.901721e-07
6.968130e-07
7.036310e-07
7.106331e-07
7.178271e-07
7.252210e-07
7.328232e-07
7.406427e-07
7.486892e-07
7.569726e-07
7.655038e-07
7.742940e-07
7.833554e-07
7.927009e-07
8.023441e-07
8.122998e-07
8.225835e-07
8.332119e-07
8.442028e-07
8.555755e-07
8.673503e-07
8.795494e-07
8.921963e-07
9.053167e-07
9.189380e-07
9.330900e-07
9.478047e-07
9.631169e-07
9.790645e-07
9.956884e-07
1.013034e-06
1.031148e-06
1.050087e-06
1.069906e-06
1.090672e-06
1.112454e-06
1.135329e-06
1.159385e-06
1.184715e-06
1.211427e-06
1.239637e-06
1.269477e-06
1.301094e-06
1.334655e-06
1.370344e-06
1.408374e-06
1.448982e-06
1.492440e-06
1.539059e-06
1.589192e-06
1.643247e-06
1.701690e-06
1.765059e-06
1.833971e-06
1.909131e-06
1.991341e-06
2.081492e-06
2.180536e-06
2.289410e-06
2.408779e-06
2.536688e-06
2.596297e-06
1.061906e-06
4.010635e-07
2.344852e-07
8.305649e-10
0.000000e+00
0.000000e+00
0.000000e+00
0.000000e+00
0.000000e+00
0.000000e+00
0.000000e+00
0.000000e+00
0.000000e+00
0.000000e+00
0.000000e+00
0.000000e+00
0.000000e+00
0.000000e+00
0.000000e+00
0.000000e+00
0.000000e+00
0.000000e+00
0.000000e+00
0.000000e+00
0.000000e+00
0.000000e+00
0.000000e+00
0.000000e+00
0.000000e+00
0.000000e+00
0.000000e+00
0.000000e+00
0.000000e+00
0.000000e+00
0.000000e+00
0.000000e+00
0.000000e+00
0.000000e+00
0.000000e+00
0.000000e+00
0.000000e+00
0.000000e+00
0.000000e+00
0.000000e+00
0.000000e+00
0.000000e+00
0.000000e+00
0.000000e+00
0.000000e+00
0.000000e+00
0.000000e+00
0.000000e+00
0.000000e+00
0.000000e+00
0.000000e+00
0.000000e+00
0.000000e+00
0.000000e+00
0.000000e+00
0.000000e+00
0.000000e+00
0.000000e+00
0.000000e+00
0.000000e+00
0.000000e+00
0.000000e+00
0.000000e+00
0.000000e+00
0.000000e+00
0.000000e+00
0.000000e+00
0.000000e+00
0.000000e+00
0.000000e+00
0.000000e+00
0.000000e+00
0.000000e+00
0.000000e+00
0.000000e+00
0.000000e+00
0.000000e+00
0.000000e+00
0.000000e+00
0.000000e+00
0.000000e+00
0.000000e+00
0.000000e+00
0.000000e+00
0.000000e+00
0.000000e+00
0.000000e+00
0.000000e+00
0.000000e+00
0.000000e+00
0.000000e+00
0.000000e+00
0.000000e+00
0.000000e+00
0.000000e+00
5.292850e-07
5.323528e-07
5.354762e-07
5.386566e-07
5.418956e-07
5.451948e-07
5.485559e-07
5.519806e-07
5.554707e-07
5.590281e-07
5.626548e-07
5.663526e-07
5.701239e-07
5.739706e-07
5.778952e-07
5.818999e-07
5.859872e-07
5.901597e-07
5.944201e-07
5.987711e-07
6.032157e-07
6.077568e-07
6.123977e-07
6.171417e-07
6.219922e-07
6.269527e-07
6.320273e-07
6.372196e-07
6.425341e-07
6.479748e-07
6.535466e-07
6.592540e-07
6.651022e-07
6.710963e-07
6.772421e-07
6.835452e-07
6.900119e-07
6.966486e-07
7.034622e-07
7.104597e-07
7.176489e-07
7.250378e-07
7.326348e-07
7.404490e-07
7.484897e-07
7.567673e-07
7.652922e-07
7.740760e-07
7.831306e-07
7.924690e-07
8.021048e-07
8.120526e-07
8.223281e-07
8.329479e-07
8.439298e-07
8.552928e-07
8.670576e-07
8.792460e-07
8.918817e-07
9.049902e-07
9.185989e-07
9.327375e-07
9.474381e-07
9.627353e-07
9.786668e-07
9.952738e-07
1.012601e-06
1.030696e-06
1.049614e-06
1.069411e-06
1.090153e-06
1.111908e-06
1.134756e-06
1.158782e-06
1.184080e-06
1.210757e-06
1.238929e-06
1.268727e-06
1.300299e-06
1.333810e-06
1.369445e-06
1.407414e-06
1.447956e-06
1.491342e-06
1.537879e-06
1.587922e-06
1.641876e-06
1.700206e-06
1.763447e-06
1.832215e-06
1.907214e-06
1.989241e-06
2.079186e-06
2.178002e-06
2.286626e-06
2.405737e-06
2.533575e-06
2.599746e-06
1.127630e-06
3.974137e-07
2.415486e-07
2.101241e-09
0.000000e+00
0.000000e+00
0.000000e+00
0.000000e+00
0.000000e+00
0.000000e+00
0.000000e+00
0.000000e+00
0.000000e+00
0.000000e+00
0.000000e+00
0.000000e+00
0.000000e+00
0.000000e+00
0.000000e+00
0.000000e+00
0.000000e+00
0.000000e+00
0.000000e+00
0.000000e+00
0.000000e+00
0.000000e+00
0.000000e+00
0.000000e+00
0.000000e+00
0.000000e+00
0.000000e+00
0.000000e+00
0.000000e+00
0.000000e+00
0.000000e+00
0.000000e+00
0.000000e+00
0.000000e+00
0.000000e+00
0.000000e+00
0.000000e+00
0.000000e+00
0.000000e+00
0.000000e+00
0.000000e+00
0.000000e+00
0.000000e+00
0.000000e+00
0.000000e+00
0.000000e+00
0.000000e+00
0.000000e+00
0.000000e+00
0.000000e+00
0.000000e+00
0.000000e+00
0.000000e+00
0.000000e+00
0.000000e+00
0.000000e+00
0.000000e+00
0.000000e+00
0.000000e+00
0.000000e+00
0.000000e+00
0.000000e+00
0.000000e+00
0.000000e+00
0.000000e+00
0.000000e+00
0.000000e+00
0.000000e+00
0.000000e+00
0.000000e+00
0.000000e+00
0.000000e+00
0.000000e+00
0.000000e+00
0.000000e+00
0.000000e+00
0.000000e+00
0.000000e+00
0.000000e+00
0.000000e+00
0.000000e+00
0.000000e+00
0.000000e+00
0.000000e+00
0.000000e+00
0.000000e+00
0.000000e+00
0.000000e+00
0.000000e+00
0.000000e+00
0.000000e+00
0.000000e+00
0.000000e+00
0.000000e+00
0.000000e+00
0.000000e+00
0.000000e+00
0.000000e+00
5.390701e-07
5.423167e-07
5.456238e-07
5.489930e-07
5.524260e-07
5.559247e-07
5.594909e-07
5.631266e-07
5.668338e-07
5.706146e-07
5.744713e-07
5.784060e-07
5.824212e-07
5.865193e-07
5.907030e-07
5.949749e-07
5.993378e-07
6.037946e-07
6.083484e-07
6.130024e-07
6.177598e-07
6.226243e-07
6.275993e-07
6.326888e-07
6.378966e-07
6.432271e-07
6.486844e-07
6.542733e-07
6.599986e-07
6.658652e-07
6.718786e-07
6.780443e-07
6.843681e-07
6.908563e-07
6.975154e-07
7.043522e-07
7.113740e-07
7.185884e-07
7.260036e-07
7.336280e-07
7.414708e-07
7.495415e-07
7.578502e-07
7.664078e-07
7.752258e-07
7.843162e-07
7.936920e-07
8.033672e-07
8.133563e-07
8.236751e-07
8.343404e-07
8.453703e-07
8.567839e-07
8.686019e-07
8.808465e-07
8.935416e-07
9.067129e-07
9.203881e-07
9.345971e-07
9.493724e-07
9.647491e-07
9.807652e-07
9.974622e-07
1.014885e-06
1.033083e-06
1.052111e-06
1.072026e-06
1.092894e-06
1.114786e-06
1.137780e-06
1.161964e-06
1.187434e-06
1.214296e-06
1.242669e-06
1.272687e-06
1.304499e-06
1.338272e-06
1.374196e-06
1.412482e-06
1.453374e-06
1.497147e-06
1.544115e-06
1.594637e-06
1.649126e-06
1.708057e-06
1.771973e-06
1.841501e-06
1.917358e-06
2.000352e-06
2.091385e-06
2.191413e-06
2.301358e-06
2.421822e-06
2.549815e-06
2.573651e-06
8.046292e-07
4.105185e-07
2.042460e-07
0.000000e+00
0.000000e+00
0.000000e+00
0.000000e+00
0.000000e+00
0.000000e+00
0.000000e+00
0.000000e+00
0.000000e+00
0.000000e+00
0.000000e+00
0.000000e+00
0.000000e+00
0.000000e+00
0.000000e+00
0.000000e+00
0.000000e+00
0.000000e+00
0.000000e+00
0.000000e+00
0.000000e+00
0.000000e+00
0.000000e+00
0.000000e+00
0.000000e+00
0.000000e+00
0.000000e+00
0.000000e+00
0.000000e+00
0.000000e+00
0.000000e+00
0.000000e+00
0.000000e+00
0.000000e+00
0.000000e+00
0.000000e+00
0.000000e+00
0.000000e+00
0.000000e+00
0.000000e+00
0.000000e+00
0.000000e+00
0.000000e+00
0.000000e+00
0.000000e+00
0.000000e+00
0.000000e+00
0.000000e+00
0.000000e+00
0.000000e+00
0.000000e+00
0.000000e+00
0.000000e+00
0.000000e+00
0.000000e+00
0.000000e+00
0.000000e+00
0.000000e+00
0.000000e+00
0.000000e+00
0.000000e+00
0.000000e+00
0.000000e+00
0.000000e+00
0.000000e+00
0.000000e+00
0.000000e+00
0.000000e+00
0.000000e+00
0.000000e+00
0.000000e+00
0.000000e+00
0.000000e+00
0.000000e+00
0.000000e+00
0.000000e+00
0.000000e+00
0.000000e+00
0.000000e+00
0.000000e+00
0.000000e+00
0.000000e+00
0.000000e+00
0.000000e+00
0.000000e+00
0.000000e+00
0.000000e+00
0.000000e+00
0.000000e+00
0.000000e+00
0.000000e+00
0.000000e+00
0.000000e+00
0.000000e+00
0.000000e+00
0.000000e+00
0.000000e+00
0.000000e+00
0.000000e+00
0.000000e+00
0.000000e+00
0.000000e+00
5.489099e-07
5.523413e-07
5.558384e-07
5.594029e-07
5.630369e-07
5.667423e-07
5.705213e-07
5.743761e-07
5.783089e-07
5.823221e-07
5.864182e-07
5.905997e-07
5.948694e-07
5.992300e-07
6.036845e-07
6.082359e-07
6.128874e-07
6.176423e-07
6.225041e-07
6.274764e-07
6.325630e-07
6.377679e-07
6.430953e-07
6.485495e-07
6.541351e-07
6.598570e-07
6.657201e-07
6.717299e-07
6.778917e-07
6.842116e-07
6.906957e-07
6.973506e-07
7.041829e-07
7.112001e-07
7.184098e-07
7.258199e-07
7.334391e-07
7.412765e-07
7.493414e-07
7.576442e-07
7.661956e-07
7.750071e-07
7.840907e-07
7.934594e-07
8.031270e-07
8.131083e-07
8.234189e-07
8.340755e-07
8.450962e-07
8.565002e-07
8.683080e-07
8.805420e-07
8.932257e-07
9.063851e-07
9.200476e-07
9.342432e-07
9.490043e-07
9.643658e-07
9.803658e-07
9.970457e-07
1.014450e-06
1.032629e-06
1.051635e-06
1.071528e-06
1.092372e-06
1.114238e-06
1.137205e-06
1.161358e-06
1.186795e-06
1.213622e-06
1.241957e-06
1.271933e-06
1.303699e-06
1.337422e-06
1.373290e-06
1.411516e-06
1.452342e-06
1.496040e-06
1.542926e-06
1.593357e-06
1.647744e-06
1.706559e-06
1.770347e-06
1.839730e-06
1.915422e-06
1.998232e-06
2.089057e-06
2.188853e-06