
    FoamFile
    {
        version     2.0;
        format      ascii;
        class       volScalarField;
        location    "0";
        object     HO2;
    }

dimensions      [0 0 0 0 0 0 0 ];

    internalField   nonuniform List<scalar>
    8000
(
3.164937e-06
3.156022e-06
3.147065e-06
3.138069e-06
3.129034e-06
3.119962e-06
3.110854e-06
3.101711e-06
3.092536e-06
3.083330e-06
3.074095e-06
3.064833e-06
3.055546e-06
3.046235e-06
3.036905e-06
3.027557e-06
3.018193e-06
3.008817e-06
2.999432e-06
2.990040e-06
2.980646e-06
2.971253e-06
2.961865e-06
2.952486e-06
2.943120e-06
2.933773e-06
2.924448e-06
2.915151e-06
2.905889e-06
2.896666e-06
2.887489e-06
2.878365e-06
2.869300e-06
2.860304e-06
2.851383e-06
2.842546e-06
2.833803e-06
2.825164e-06
2.816638e-06
2.808237e-06
2.799974e-06
2.791860e-06
2.783910e-06
2.776137e-06
2.768559e-06
2.761191e-06
2.754051e-06
2.747160e-06
2.740536e-06
2.734204e-06
2.728186e-06
2.722509e-06
2.717200e-06
2.712289e-06
2.707809e-06
2.703796e-06
2.700286e-06
2.697322e-06
2.694948e-06
2.693213e-06
2.692171e-06
2.691878e-06
2.692400e-06
2.693804e-06
2.696169e-06
2.699577e-06
2.704122e-06
2.709906e-06
2.717042e-06
2.725656e-06
2.735889e-06
2.747898e-06
2.761858e-06
2.777967e-06
2.796450e-06
2.817559e-06
2.841583e-06
2.868853e-06
2.899747e-06
2.934705e-06
2.974237e-06
3.018941e-06
3.069522e-06
3.126819e-06
3.191835e-06
3.265789e-06
3.350170e-06
3.446826e-06
3.558079e-06
3.686896e-06
3.837138e-06
4.013941e-06
4.224313e-06
4.478113e-06
4.789748e-06
5.181431e-06
5.696280e-06
6.716545e-06
1.323494e-05
1.805151e-05
1.347951e-05
8.628811e-07
0.000000e+00
0.000000e+00
0.000000e+00
0.000000e+00
0.000000e+00
0.000000e+00
0.000000e+00
0.000000e+00
0.000000e+00
0.000000e+00
0.000000e+00
0.000000e+00
0.000000e+00
0.000000e+00
0.000000e+00
0.000000e+00
0.000000e+00
0.000000e+00
0.000000e+00
0.000000e+00
0.000000e+00
0.000000e+00
0.000000e+00
0.000000e+00
0.000000e+00
0.000000e+00
0.000000e+00
0.000000e+00
0.000000e+00
0.000000e+00
0.000000e+00
0.000000e+00
0.000000e+00
0.000000e+00
0.000000e+00
0.000000e+00
0.000000e+00
0.000000e+00
0.000000e+00
0.000000e+00
0.000000e+00
0.000000e+00
0.000000e+00
0.000000e+00
0.000000e+00
0.000000e+00
0.000000e+00
0.000000e+00
0.000000e+00
0.000000e+00
0.000000e+00
0.000000e+00
0.000000e+00
0.000000e+00
0.000000e+00
0.000000e+00
0.000000e+00
0.000000e+00
0.000000e+00
0.000000e+00
0.000000e+00
0.000000e+00
0.000000e+00
0.000000e+00
0.000000e+00
0.000000e+00
0.000000e+00
0.000000e+00
0.000000e+00
0.000000e+00
0.000000e+00
0.000000e+00
0.000000e+00
0.000000e+00
0.000000e+00
0.000000e+00
0.000000e+00
0.000000e+00
0.000000e+00
0.000000e+00
0.000000e+00
0.000000e+00
0.000000e+00
0.000000e+00
0.000000e+00
0.000000e+00
0.000000e+00
0.000000e+00
0.000000e+00
0.000000e+00
0.000000e+00
0.000000e+00
0.000000e+00
0.000000e+00
0.000000e+00
0.000000e+00
0.000000e+00
0.000000e+00
3.191213e-06
3.182426e-06
3.173594e-06
3.164720e-06
3.155803e-06
3.146846e-06
3.137849e-06
3.128813e-06
3.119740e-06
3.110631e-06
3.101487e-06
3.092312e-06
3.083105e-06
3.073869e-06
3.064606e-06
3.055318e-06
3.046008e-06
3.036677e-06
3.027328e-06
3.017964e-06
3.008588e-06
2.999202e-06
2.989811e-06
2.980417e-06
2.971024e-06
2.961636e-06
2.952257e-06
2.942892e-06
2.933545e-06
2.924220e-06
2.914925e-06
2.905663e-06
2.896441e-06
2.887265e-06
2.878142e-06
2.869080e-06
2.860085e-06
2.851166e-06
2.842332e-06
2.833591e-06
2.824954e-06
2.816431e-06
2.808034e-06
2.799774e-06
2.791664e-06
2.783718e-06
2.775950e-06
2.768376e-06
2.761014e-06
2.753880e-06
2.746994e-06
2.740378e-06
2.734053e-06
2.728043e-06
2.722374e-06
2.717075e-06
2.712174e-06
2.707706e-06
2.703704e-06
2.700207e-06
2.697257e-06
2.694898e-06
2.693179e-06
2.692154e-06
2.691881e-06
2.692423e-06
2.693851e-06
2.696240e-06
2.699675e-06
2.704248e-06
2.710064e-06
2.717234e-06
2.725886e-06
2.736161e-06
2.748215e-06
2.762225e-06
2.778390e-06
2.796934e-06
2.818110e-06
2.842210e-06
2.869563e-06
2.900551e-06
2.935614e-06
2.975265e-06
3.020104e-06
3.070839e-06
3.128311e-06
3.193531e-06
3.267720e-06
3.352378e-06
3.449360e-06
3.561004e-06
3.690294e-06
3.841118e-06
4.018649e-06
4.229951e-06
4.484969e-06
4.798253e-06
5.192279e-06
5.711332e-06
6.768701e-06
1.342474e-05
1.826081e-05
1.319251e-05
5.358888e-07
0.000000e+00
0.000000e+00
0.000000e+00
0.000000e+00
0.000000e+00
0.000000e+00
0.000000e+00
0.000000e+00
0.000000e+00
0.000000e+00
0.000000e+00
0.000000e+00
0.000000e+00
0.000000e+00
0.000000e+00
0.000000e+00
0.000000e+00
0.000000e+00
0.000000e+00
0.000000e+00
0.000000e+00
0.000000e+00
0.000000e+00
0.000000e+00
0.000000e+00
0.000000e+00
0.000000e+00
0.000000e+00
0.000000e+00
0.000000e+00
0.000000e+00
0.000000e+00
0.000000e+00
0.000000e+00
0.000000e+00
0.000000e+00
0.000000e+00
0.000000e+00
0.000000e+00
0.000000e+00
0.000000e+00
0.000000e+00
0.000000e+00
0.000000e+00
0.000000e+00
0.000000e+00
0.000000e+00
0.000000e+00
0.000000e+00
0.000000e+00
0.000000e+00
0.000000e+00
0.000000e+00
0.000000e+00
0.000000e+00
0.000000e+00
0.000000e+00
0.000000e+00
0.000000e+00
0.000000e+00
0.000000e+00
0.000000e+00
0.000000e+00
0.000000e+00
0.000000e+00
0.000000e+00
0.000000e+00
0.000000e+00
0.000000e+00
0.000000e+00
0.000000e+00
0.000000e+00
0.000000e+00
0.000000e+00
0.000000e+00
0.000000e+00
0.000000e+00
0.000000e+00
0.000000e+00
0.000000e+00
0.000000e+00
0.000000e+00
0.000000e+00
0.000000e+00
0.000000e+00
0.000000e+00
0.000000e+00
0.000000e+00
0.000000e+00
0.000000e+00
0.000000e+00
0.000000e+00
0.000000e+00
0.000000e+00
0.000000e+00
3.213252e-06
3.204580e-06
3.195862e-06
3.187099e-06
3.178291e-06
3.169439e-06
3.160545e-06
3.151609e-06
3.142633e-06
3.133617e-06
3.124564e-06
3.115473e-06
3.106348e-06
3.097189e-06
3.087999e-06
3.078778e-06
3.069529e-06
3.060255e-06
3.050956e-06
3.041635e-06
3.032296e-06
3.022939e-06
3.013569e-06
3.004188e-06
2.994800e-06
2.985407e-06
2.976013e-06
2.966622e-06
2.957237e-06
2.947864e-06
2.938507e-06
2.929170e-06
2.919858e-06
2.910578e-06
2.901334e-06
2.892133e-06
2.882981e-06
2.873885e-06
2.864854e-06
2.855893e-06
2.847013e-06
2.838221e-06
2.829528e-06
2.820943e-06
2.812478e-06
2.804143e-06
2.795952e-06
2.787917e-06
2.780053e-06
2.772374e-06
2.764897e-06
2.757639e-06
2.750620e-06
2.743858e-06
2.737375e-06
2.731194e-06
2.725341e-06
2.719842e-06
2.714726e-06
2.710023e-06
2.705769e-06
2.701999e-06
2.698753e-06
2.696074e-06
2.694009e-06
2.692609e-06
2.691929e-06
2.692030e-06
2.692978e-06
2.694846e-06
2.697714e-06
2.701671e-06
2.706814e-06
2.713249e-06
2.721098e-06
2.730492e-06
2.741580e-06
2.754528e-06
2.769522e-06
2.786773e-06
2.806517e-06
2.829026e-06
2.854607e-06
2.883613e-06
2.916453e-06
2.953598e-06
2.995601e-06
3.043109e-06
3.096888e-06
3.157855e-06
3.227113e-06
3.306004e-06
3.396183e-06
3.499713e-06
3.619210e-06
3.758045e-06
3.920648e-06
4.112986e-06
4.343317e-06
4.623465e-06
4.971108e-06
5.415096e-06
6.049647e-06
8.710167e-06
1.496381e-05
1.851787e-05
7.443483e-06
0.000000e+00
0.000000e+00
0.000000e+00
0.000000e+00
0.000000e+00
0.000000e+00
0.000000e+00
0.000000e+00
0.000000e+00
0.000000e+00
0.000000e+00
0.000000e+00
0.000000e+00
0.000000e+00
0.000000e+00
0.000000e+00
0.000000e+00
0.000000e+00
0.000000e+00
0.000000e+00
0.000000e+00
0.000000e+00
0.000000e+00
0.000000e+00
0.000000e+00
0.000000e+00
0.000000e+00
0.000000e+00
0.000000e+00
0.000000e+00
0.000000e+00
0.000000e+00
0.000000e+00
0.000000e+00
0.000000e+00
0.000000e+00
0.000000e+00
0.000000e+00
0.000000e+00
0.000000e+00
0.000000e+00
0.000000e+00
0.000000e+00
0.000000e+00
0.000000e+00
0.000000e+00
0.000000e+00
0.000000e+00
0.000000e+00
0.000000e+00
0.000000e+00
0.000000e+00
0.000000e+00
0.000000e+00
0.000000e+00
0.000000e+00
0.000000e+00
0.000000e+00
0.000000e+00
0.000000e+00
0.000000e+00
0.000000e+00
0.000000e+00
0.000000e+00
0.000000e+00
0.000000e+00
0.000000e+00
0.000000e+00
0.000000e+00
0.000000e+00
0.000000e+00
0.000000e+00
0.000000e+00
0.000000e+00
0.000000e+00
0.000000e+00
0.000000e+00
0.000000e+00
0.000000e+00
0.000000e+00
0.000000e+00
0.000000e+00
0.000000e+00
0.000000e+00
0.000000e+00
0.000000e+00
0.000000e+00
0.000000e+00
0.000000e+00
0.000000e+00
0.000000e+00
0.000000e+00
0.000000e+00
3.229076e-06
3.220491e-06
3.211859e-06
3.203179e-06
3.194454e-06
3.185683e-06
3.176868e-06
3.168010e-06
3.159109e-06
3.150166e-06
3.141184e-06
3.132162e-06
3.123102e-06
3.114007e-06
3.104876e-06
3.095712e-06
3.086516e-06
3.077291e-06
3.068038e-06
3.058759e-06
3.049457e-06
3.040133e-06
3.030790e-06
3.021432e-06
3.012060e-06
3.002677e-06
2.993288e-06
2.983894e-06
2.974500e-06
2.965110e-06
2.955727e-06
2.946357e-06
2.937002e-06
2.927669e-06
2.918362e-06
2.909087e-06
2.899849e-06
2.890656e-06
2.881513e-06
2.872427e-06
2.863406e-06
2.854458e-06
2.845591e-06
2.836815e-06
2.828138e-06
2.819572e-06
2.811127e-06
2.802814e-06
2.794647e-06
2.786639e-06
2.778803e-06
2.771156e-06
2.763713e-06
2.756493e-06
2.749513e-06
2.742794e-06
2.736359e-06
2.730229e-06
2.724431e-06
2.718992e-06
2.713940e-06
2.709307e-06
2.705128e-06
2.701440e-06
2.698283e-06
2.695699e-06
2.693738e-06
2.692449e-06
2.691891e-06
2.692123e-06
2.693214e-06
2.695238e-06
2.698275e-06
2.702416e-06
2.707759e-06
2.714414e-06
2.722502e-06
2.732159e-06
2.743535e-06
2.756799e-06
2.772141e-06
2.789777e-06
2.809947e-06
2.832928e-06
2.859036e-06
2.888630e-06
2.922129e-06
2.960017e-06
3.002860e-06
3.051322e-06
3.106192e-06
3.168414e-06
3.239125e-06
3.319712e-06
3.411889e-06
3.517796e-06
3.640156e-06
3.782485e-06
3.949424e-06
4.147246e-06
4.384681e-06
4.674302e-06
5.035071e-06
5.499014e-06
6.204748e-06
9.990700e-06
1.533339e-05
1.720876e-05
5.392289e-06
0.000000e+00
0.000000e+00
0.000000e+00
0.000000e+00
0.000000e+00
0.000000e+00
0.000000e+00
0.000000e+00
0.000000e+00
0.000000e+00
0.000000e+00
0.000000e+00
0.000000e+00
0.000000e+00
0.000000e+00
0.000000e+00
0.000000e+00
0.000000e+00
0.000000e+00
0.000000e+00
0.000000e+00
0.000000e+00
0.000000e+00
0.000000e+00
0.000000e+00
0.000000e+00
0.000000e+00
0.000000e+00
0.000000e+00
0.000000e+00
0.000000e+00
0.000000e+00
0.000000e+00
0.000000e+00
0.000000e+00
0.000000e+00
0.000000e+00
0.000000e+00
0.000000e+00
0.000000e+00
0.000000e+00
0.000000e+00
0.000000e+00
0.000000e+00
0.000000e+00
0.000000e+00
0.000000e+00
0.000000e+00
0.000000e+00
0.000000e+00
0.000000e+00
0.000000e+00
0.000000e+00
0.000000e+00
0.000000e+00
0.000000e+00
0.000000e+00
0.000000e+00
0.000000e+00
0.000000e+00
0.000000e+00
0.000000e+00
0.000000e+00
0.000000e+00
0.000000e+00
0.000000e+00
0.000000e+00
0.000000e+00
0.000000e+00
0.000000e+00
0.000000e+00
0.000000e+00
0.000000e+00
0.000000e+00
0.000000e+00
0.000000e+00
0.000000e+00
0.000000e+00
0.000000e+00
0.000000e+00
0.000000e+00
0.000000e+00
0.000000e+00
0.000000e+00
0.000000e+00
0.000000e+00
0.000000e+00
0.000000e+00
0.000000e+00
0.000000e+00
0.000000e+00
3.237331e-06
3.228792e-06
3.220206e-06
3.211572e-06
3.202891e-06
3.194164e-06
3.185392e-06
3.176575e-06
3.167715e-06
3.158813e-06
3.149869e-06
3.140885e-06
3.131862e-06
3.122801e-06
3.113704e-06
3.104572e-06
3.095407e-06
3.086211e-06
3.076984e-06
3.067730e-06
3.058451e-06
3.049147e-06
3.039823e-06
3.030480e-06
3.021121e-06
3.011748e-06
3.002366e-06
2.992976e-06
2.983582e-06
2.974189e-06
2.964799e-06
2.955416e-06
2.946046e-06
2.936692e-06
2.927360e-06
2.918054e-06
2.908780e-06
2.899544e-06
2.890352e-06
2.881210e-06
2.872126e-06
2.863108e-06
2.854162e-06
2.845299e-06
2.836525e-06
2.827852e-06
2.819290e-06
2.810849e-06
2.802541e-06
2.794379e-06
2.786376e-06
2.778547e-06
2.770906e-06
2.763470e-06
2.756257e-06
2.749286e-06
2.742576e-06
2.736150e-06
2.730031e-06
2.724245e-06
2.718818e-06
2.713779e-06
2.709161e-06
2.704998e-06
2.701327e-06
2.698187e-06
2.695624e-06
2.693684e-06
2.692419e-06
2.691885e-06
2.692145e-06
2.693266e-06
2.695322e-06
2.698395e-06
2.702574e-06
2.707959e-06
2.714659e-06
2.722797e-06
2.732508e-06
2.743943e-06
2.757273e-06
2.772689e-06
2.790404e-06
2.810663e-06
2.833743e-06
2.859960e-06
2.889677e-06
2.923313e-06
2.961356e-06
3.004373e-06
3.053035e-06
3.108133e-06
3.170617e-06
3.241632e-06
3.322574e-06
3.415169e-06
3.521576e-06
3.644536e-06
3.787600e-06
3.955452e-06
4.154433e-06
4.393370e-06
4.685003e-06
5.048571e-06
5.516864e-06
6.241175e-06
1.029424e-05
1.547989e-05
1.689182e-05
4.965092e-06
0.000000e+00
0.000000e+00
0.000000e+00
0.000000e+00
0.000000e+00
0.000000e+00
0.000000e+00
0.000000e+00
0.000000e+00
0.000000e+00
0.000000e+00
0.000000e+00
0.000000e+00
0.000000e+00
0.000000e+00
0.000000e+00
0.000000e+00
0.000000e+00
0.000000e+00
0.000000e+00
0.000000e+00
0.000000e+00
0.000000e+00
0.000000e+00
0.000000e+00
0.000000e+00
0.000000e+00
0.000000e+00
0.000000e+00
0.000000e+00
0.000000e+00
0.000000e+00
0.000000e+00
0.000000e+00
0.000000e+00
0.000000e+00
0.000000e+00
0.000000e+00
0.000000e+00
0.000000e+00
0.000000e+00
0.000000e+00
0.000000e+00
0.000000e+00
0.000000e+00
0.000000e+00
0.000000e+00
0.000000e+00
0.000000e+00
0.000000e+00
0.000000e+00
0.000000e+00
0.000000e+00
0.000000e+00
0.000000e+00
0.000000e+00
0.000000e+00
0.000000e+00
0.000000e+00
0.000000e+00
0.000000e+00
0.000000e+00
0.000000e+00
0.000000e+00
0.000000e+00
0.000000e+00
0.000000e+00
0.000000e+00
0.000000e+00
0.000000e+00
0.000000e+00
0.000000e+00
0.000000e+00
0.000000e+00
0.000000e+00
0.000000e+00
0.000000e+00
0.000000e+00
0.000000e+00
0.000000e+00
0.000000e+00
0.000000e+00
0.000000e+00
0.000000e+00
0.000000e+00
0.000000e+00
0.000000e+00
0.000000e+00
0.000000e+00
0.000000e+00
3.237331e-06
3.228792e-06
3.220206e-06
3.211572e-06
3.202891e-06
3.194164e-06
3.185392e-06
3.176575e-06
3.167715e-06
3.158813e-06
3.149869e-06
3.140885e-06
3.131862e-06
3.122801e-06
3.113704e-06
3.104572e-06
3.095407e-06
3.086211e-06
3.076984e-06
3.067730e-06
3.058451e-06
3.049147e-06
3.039823e-06
3.030480e-06
3.021121e-06
3.011748e-06
3.002366e-06
2.992976e-06
2.983582e-06
2.974189e-06
2.964799e-06
2.955416e-06
2.946046e-06
2.936692e-06
2.927360e-06
2.918054e-06
2.908780e-06
2.899544e-06
2.890352e-06
2.881210e-06
2.872126e-06
2.863108e-06
2.854162e-06
2.845299e-06
2.836525e-06
2.827852e-06
2.819290e-06
2.810849e-06
2.802541e-06
2.794379e-06
2.786376e-06
2.778547e-06
2.770906e-06
2.763470e-06
2.756257e-06
2.749286e-06
2.742576e-06
2.736150e-06
2.730031e-06
2.724245e-06
2.718818e-06
2.713779e-06
2.709161e-06
2.704998e-06
2.701327e-06
2.698187e-06
2.695624e-06
2.693684e-06
2.692419e-06
2.691885e-06
2.692145e-06
2.693266e-06
2.695322e-06
2.698395e-06
2.702574e-06
2.707959e-06
2.714659e-06
2.722797e-06
2.732508e-06
2.743943e-06
2.757273e-06
2.772689e-06
2.790404e-06
2.810663e-06
2.833743e-06
2.859960e-06
2.889677e-06
2.923313e-06
2.961356e-06
3.004373e-06
3.053035e-06
3.108133e-06
3.170617e-06
3.241632e-06
3.322574e-06
3.415169e-06
3.521576e-06
3.644536e-06
3.787600e-06
3.955452e-06
4.154433e-06
4.393370e-06
4.685003e-06
5.048571e-06
5.516864e-06
6.241175e-06
1.029424e-05
1.547989e-05
1.689182e-05
4.965092e-06
0.000000e+00
0.000000e+00
0.000000e+00
0.000000e+00
0.000000e+00
0.000000e+00
0.000000e+00
0.000000e+00
0.000000e+00
0.000000e+00
0.000000e+00
0.000000e+00
0.000000e+00
0.000000e+00
0.000000e+00
0.000000e+00
0.000000e+00
0.000000e+00
0.000000e+00
0.000000e+00
0.000000e+00
0.000000e+00
0.000000e+00
0.000000e+00
0.000000e+00
0.000000e+00
0.000000e+00
0.000000e+00
0.000000e+00
0.000000e+00
0.000000e+00
0.000000e+00
0.000000e+00
0.000000e+00
0.000000e+00
0.000000e+00
0.000000e+00
0.000000e+00
0.000000e+00
0.000000e+00
0.000000e+00
0.000000e+00
0.000000e+00
0.000000e+00
0.000000e+00
0.000000e+00
0.000000e+00
0.000000e+00
0.000000e+00
0.000000e+00
0.000000e+00
0.000000e+00
0.000000e+00
0.000000e+00
0.000000e+00
0.000000e+00
0.000000e+00
0.000000e+00
0.000000e+00
0.000000e+00
0.000000e+00
0.000000e+00
0.000000e+00
0.000000e+00
0.000000e+00
0.000000e+00
0.000000e+00
0.000000e+00
0.000000e+00
0.000000e+00
0.000000e+00
0.000000e+00
0.000000e+00
0.000000e+00
0.000000e+00
0.000000e+00
0.000000e+00
0.000000e+00
0.000000e+00
0.000000e+00
0.000000e+00
0.000000e+00
0.000000e+00
0.000000e+00
0.000000e+00
0.000000e+00
0.000000e+00
0.000000e+00
0.000000e+00
0.000000e+00
3.229076e-06
3.220491e-06
3.211859e-06
3.203179e-06
3.194454e-06
3.185683e-06
3.176868e-06
3.168010e-06
3.159109e-06
3.150166e-06
3.141184e-06
3.132162e-06
3.123102e-06
3.114007e-06
3.104876e-06
3.095712e-06
3.086516e-06
3.077291e-06
3.068038e-06
3.058759e-06
3.049457e-06
3.040133e-06
3.030790e-06
3.021432e-06
3.012060e-06
3.002677e-06
2.993288e-06
2.983894e-06
2.974500e-06
2.965110e-06
2.955727e-06
2.946357e-06
2.937002e-06
2.927669e-06
2.918362e-06
2.909087e-06
2.899849e-06
2.890656e-06
2.881513e-06
2.872427e-06
2.863406e-06
2.854458e-06
2.845591e-06
2.836815e-06
2.828138e-06
2.819572e-06
2.811127e-06
2.802814e-06
2.794647e-06
2.786639e-06
2.778803e-06
2.771156e-06
2.763713e-06
2.756493e-06
2.749513e-06
2.742794e-06
2.736359e-06
2.730229e-06
2.724431e-06
2.718992e-06
2.713940e-06
2.709307e-06
2.705128e-06
2.701440e-06
2.698283e-06
2.695699e-06
2.693738e-06
2.692449e-06
2.691891e-06
2.692123e-06
2.693214e-06
2.695238e-06
2.698275e-06
2.702416e-06
2.707759e-06
2.714414e-06
2.722502e-06
2.732159e-06
2.743535e-06
2.756799e-06
2.772141e-06
2.789777e-06
2.809947e-06
2.832928e-06
2.859036e-06
2.888630e-06
2.922129e-06
2.960017e-06
3.002860e-06
3.051322e-06
3.106192e-06
3.168414e-06
3.239125e-06
3.319712e-06
3.411889e-06
3.517796e-06
3.640156e-06
3.782485e-06
3.949424e-06
4.147246e-06
4.384681e-06
4.674302e-06
5.035071e-06
5.499014e-06
6.204748e-06
9.990700e-06
1.533339e-05
1.720876e-05
5.392289e-06
0.000000e+00
0.000000e+00
0.000000e+00
0.000000e+00
0.000000e+00
0.000000e+00
0.000000e+00
0.000000e+00
0.000000e+00
0.000000e+00
0.000000e+00
0.000000e+00
0.000000e+00
0.000000e+00
0.000000e+00
0.000000e+00
0.000000e+00
0.000000e+00
0.000000e+00
0.000000e+00
0.000000e+00
0.000000e+00
0.000000e+00
0.000000e+00
0.000000e+00
0.000000e+00
0.000000e+00
0.000000e+00
0.000000e+00
0.000000e+00
0.000000e+00
0.000000e+00
0.000000e+00
0.000000e+00
0.000000e+00
0.000000e+00
0.000000e+00
0.000000e+00
0.000000e+00
0.000000e+00
0.000000e+00
0.000000e+00
0.000000e+00
0.000000e+00
0.000000e+00
0.000000e+00
0.000000e+00
0.000000e+00
0.000000e+00
0.000000e+00
0.000000e+00
0.000000e+00
0.000000e+00
0.000000e+00
0.000000e+00
0.000000e+00
0.000000e+00
0.000000e+00
0.000000e+00
0.000000e+00
0.000000e+00
0.000000e+00
0.000000e+00
0.000000e+00
0.000000e+00
0.000000e+00
0.000000e+00
0.000000e+00
0.000000e+00
0.000000e+00
0.000000e+00
0.000000e+00
0.000000e+00
0.000000e+00
0.000000e+00
0.000000e+00
0.000000e+00
0.000000e+00
0.000000e+00
0.000000e+00
0.000000e+00
0.000000e+00
0.000000e+00
0.000000e+00
0.000000e+00
0.000000e+00
0.000000e+00
0.000000e+00
0.000000e+00
0.000000e+00
0.000000e+00
3.213252e-06
3.204580e-06
3.195862e-06
3.187099e-06
3.178291e-06
3.169439e-06
3.160545e-06
3.151609e-06
3.142633e-06
3.133617e-06
3.124564e-06
3.115473e-06
3.106348e-06
3.097189e-06
3.087999e-06
3.078778e-06
3.069529e-06
3.060255e-06
3.050956e-06
3.041635e-06
3.032296e-06
3.022939e-06
3.013569e-06
3.004188e-06
2.994800e-06
2.985407e-06
2.976013e-06
2.966622e-06
2.957237e-06
2.947864e-06
2.938507e-06
2.929170e-06
2.919858e-06
2.910578e-06
2.901334e-06
2.892133e-06
2.882981e-06
2.873885e-06
2.864854e-06
2.855893e-06
2.847013e-06
2.838221e-06
2.829528e-06
2.820943e-06
2.812478e-06
2.804143e-06
2.795952e-06
2.787917e-06
2.780053e-06
2.772374e-06
2.764897e-06
2.757639e-06
2.750620e-06
2.743858e-06
2.737375e-06
2.731194e-06
2.725341e-06
2.719842e-06
2.714726e-06
2.710023e-06
2.705769e-06
2.701999e-06
2.698753e-06
2.696074e-06
2.694009e-06
2.692609e-06
2.691929e-06
2.692030e-06
2.692978e-06
2.694846e-06
2.697714e-06
2.701671e-06
2.706814e-06
2.713249e-06
2.721098e-06
2.730492e-06
2.741580e-06
2.754528e-06
2.769522e-06
2.786773e-06
2.806517e-06
2.829026e-06
2.854607e-06
2.883613e-06
2.916453e-06
2.953598e-06
2.995601e-06
3.043109e-06
3.096888e-06
3.157855e-06
3.227113e-06
3.306004e-06
3.396183e-06
3.499713e-06
3.619210e-06
3.758045e-06
3.920648e-06
4.112986e-06
4.343317e-06
4.623465e-06
4.971108e-06
5.415096e-06
6.049647e-06
8.710167e-06
1.496381e-05
1.851787e-05
7.443483e-06
0.000000e+00
0.000000e+00
0.000000e+00
0.000000e+00
0.000000e+00
0.000000e+00
0.000000e+00
0.000000e+00
0.000000e+00
0.000000e+00
0.000000e+00
0.000000e+00
0.000000e+00
0.000000e+00
0.000000e+00
0.000000e+00
0.000000e+00
0.000000e+00
0.000000e+00
0.000000e+00
0.000000e+00
0.000000e+00
0.000000e+00
0.000000e+00
0.000000e+00
0.000000e+00
0.000000e+00
0.000000e+00
0.000000e+00
0.000000e+00
0.000000e+00
0.000000e+00
0.000000e+00
0.000000e+00
0.000000e+00
0.000000e+00
0.000000e+00
0.000000e+00
0.000000e+00
0.000000e+00
0.000000e+00
0.000000e+00
0.000000e+00
0.000000e+00
0.000000e+00
0.000000e+00
0.000000e+00
0.000000e+00
0.000000e+00
0.000000e+00
0.000000e+00
0.000000e+00
0.000000e+00
0.000000e+00
0.000000e+00
0.000000e+00
0.000000e+00
0.000000e+00
0.000000e+00
0.000000e+00
0.000000e+00
0.000000e+00
0.000000e+00
0.000000e+00
0.000000e+00
0.000000e+00
0.000000e+00
0.000000e+00
0.000000e+00
0.000000e+00
0.000000e+00
0.000000e+00
0.000000e+00
0.000000e+00
0.000000e+00
0.000000e+00
0.000000e+00
0.000000e+00
0.000000e+00
0.000000e+00
0.000000e+00
0.000000e+00
0.000000e+00
0.000000e+00
0.000000e+00
0.000000e+00
0.000000e+00
0.000000e+00
0.000000e+00
0.000000e+00
0.000000e+00
0.000000e+00
0.000000e+00
3.191213e-06
3.182426e-06
3.173594e-06
3.164720e-06
3.155803e-06
3.146846e-06
3.137849e-06
3.128813e-06
3.119740e-06
3.110631e-06
3.101487e-06
3.092312e-06
3.083105e-06
3.073869e-06
3.064606e-06
3.055318e-06
3.046008e-06
3.036677e-06
3.027328e-06
3.017964e-06
3.008588e-06
2.999202e-06
2.989811e-06
2.980417e-06
2.971024e-06
2.961636e-06
2.952257e-06
2.942892e-06
2.933545e-06
2.924220e-06
2.914925e-06
2.905663e-06
2.896441e-06
2.887265e-06
2.878142e-06
2.869080e-06
2.860085e-06
2.851166e-06
2.842332e-06
2.833591e-06
2.824954e-06
2.816431e-06
2.808034e-06
2.799774e-06
2.791664e-06
2.783718e-06
2.775950e-06
2.768376e-06
2.761014e-06
2.753880e-06
2.746994e-06
2.740378e-06
2.734053e-06
2.728043e-06
2.722374e-06
2.717075e-06
2.712174e-06
2.707706e-06
2.703704e-06
2.700207e-06
2.697257e-06
2.694898e-06
2.693179e-06
2.692154e-06
2.691881e-06
2.692423e-06
2.693851e-06
2.696240e-06
2.699675e-06
2.704248e-06
2.710064e-06
2.717234e-06
2.725886e-06
2.736161e-06
2.748215e-06
2.762225e-06
2.778390e-06
2.796934e-06
2.818110e-06
2.842210e-06
2.869563e-06
2.900551e-06
2.935614e-06
2.975265e-06
3.020104e-06
3.070839e-06
3.128311e-06
3.193531e-06
3.267720e-06
3.352378e-06
3.449360e-06
3.561004e-06
3.690294e-06
3.841118e-06
4.018649e-06
4.229951e-06
4.484969e-06
4.798253e-06
5.192279e-06
5.711332e-06
6.768701e-06
1.342474e-05
1.826081e-05
1.319251e-05
5.358888e-07
0.000000e+00
0.000000e+00
0.000000e+00
0.000000e+00
0.000000e+00
0.000000e+00
0.000000e+00
0.000000e+00
0.000000e+00
0.000000e+00
0.000000e+00
0.000000e+00
0.000000e+00
0.000000e+00
0.000000e+00
0.000000e+00
0.000000e+00
0.000000e+00
0.000000e+00
0.000000e+00
0.000000e+00
0.000000e+00
0.000000e+00
0.000000e+00
0.000000e+00
0.000000e+00
0.000000e+00
0.000000e+00
0.000000e+00
0.000000e+00
0.000000e+00
0.000000e+00
0.000000e+00
0.000000e+00
0.000000e+00
0.000000e+00
0.000000e+00
0.000000e+00
0.000000e+00
0.000000e+00
0.000000e+00
0.000000e+00
0.000000e+00
0.000000e+00
0.000000e+00
0.000000e+00
0.000000e+00
0.000000e+00
0.000000e+00
0.000000e+00
0.000000e+00
0.000000e+00
0.000000e+00
0.000000e+00
0.000000e+00
0.000000e+00
0.000000e+00
0.000000e+00
0.000000e+00
0.000000e+00
0.000000e+00
0.000000e+00
0.000000e+00
0.000000e+00
0.000000e+00
0.000000e+00
0.000000e+00
0.000000e+00
0.000000e+00
0.000000e+00
0.000000e+00
0.000000e+00
0.000000e+00
0.000000e+00
0.000000e+00
0.000000e+00
0.000000e+00
0.000000e+00
0.000000e+00
0.000000e+00
0.000000e+00
0.000000e+00
0.000000e+00
0.000000e+00
0.000000e+00
0.000000e+00
0.000000e+00
0.000000e+00
0.000000e+00
0.000000e+00
0.000000e+00
0.000000e+00
0.000000e+00
0.000000e+00
0.000000e+00
3.164937e-06
3.156022e-06
3.147065e-06
3.138069e-06
3.129034e-06
3.119962e-06
3.110854e-06
3.101711e-06
3.092536e-06
3.083330e-06
3.074095e-06
3.064833e-06
3.055546e-06
3.046235e-06
3.036905e-06
3.027557e-06
3.018193e-06
3.008817e-06
2.999432e-06
2.990040e-06
2.980646e-06
2.971253e-06
2.961865e-06
2.952486e-06
2.943120e-06
2.933773e-06
2.924448e-06
2.915151e-06
2.905889e-06
2.896666e-06
2.887489e-06
2.878365e-06
2.869300e-06
2.860304e-06
2.851383e-06
2.842546e-06
2.833803e-06
2.825164e-06
2.816638e-06
2.808237e-06
2.799974e-06
2.791860e-06
2.783910e-06
2.776137e-06
2.768559e-06
2.761191e-06
2.754051e-06
2.747160e-06
2.740536e-06
2.734204e-06
2.728186e-06
2.722509e-06
2.717200e-06
2.712289e-06
2.707809e-06
2.703796e-06
2.700286e-06
2.697322e-06
2.694948e-06
2.693213e-06
2.692171e-06
2.691878e-06
2.692400e-06
2.693804e-06
2.696169e-06
2.699577e-06
2.704122e-06
2.709906e-06
2.717042e-06
2.725656e-06
2.735889e-06
2.747898e-06
2.761858e-06
2.777967e-06
2.796450e-06
2.817559e-06
2.841583e-06
2.868853e-06
2.899747e-06
2.934705e-06
2.974237e-06
3.018941e-06
3.069522e-06
3.126819e-06
3.191835e-06
3.265789e-06
3.350170e-06
3.446826e-06
3.558079e-06
3.686896e-06
3.837138e-06
4.013941e-06
4.224313e-06
4.478113e-06
4.789748e-06
5.181431e-06
5.696280e-06
6.716545e-06
1.323494e-05
1.805151e-05
1.347951e-05
8.628811e-07
0.000000e+00
0.000000e+00
0.000000e+00
0.000000e+00
0.000000e+00
0.000000e+00
0.000000e+00
0.000000e+00
0.000000e+00
0.000000e+00
0.000000e+00
0.000000e+00
0.000000e+00
0.000000e+00
0.000000e+00
0.000000e+00
0.000000e+00
0.000000e+00
0.000000e+00
0.000000e+00
0.000000e+00
0.000000e+00
0.000000e+00
0.000000e+00
0.000000e+00
0.000000e+00
0.000000e+00
0.000000e+00
0.000000e+00
0.000000e+00
0.000000e+00
0.000000e+00
0.000000e+00
0.000000e+00
0.000000e+00
0.000000e+00
0.000000e+00
0.000000e+00
0.000000e+00
0.000000e+00
0.000000e+00
0.000000e+00
0.000000e+00
0.000000e+00
0.000000e+00
0.000000e+00
0.000000e+00
0.000000e+00
0.000000e+00
0.000000e+00
0.000000e+00
0.000000e+00
0.000000e+00
0.000000e+00
0.000000e+00
0.000000e+00
0.000000e+00
0.000000e+00
0.000000e+00
0.000000e+00
0.000000e+00
0.000000e+00
0.000000e+00
0.000000e+00
0.000000e+00
0.000000e+00
0.000000e+00
0.000000e+00
0.000000e+00
0.000000e+00
0.000000e+00
0.000000e+00
0.000000e+00
0.000000e+00
0.000000e+00
0.000000e+00
0.000000e+00
0.000000e+00
0.000000e+00
0.000000e+00
0.000000e+00
0.000000e+00
0.000000e+00
0.000000e+00
0.000000e+00
0.000000e+00
0.000000e+00
0.000000e+00
0.000000e+00
0.000000e+00
0.000000e+00
0.000000e+00
0.000000e+00
0.000000e+00
0.000000e+00
0.000000e+00
0.000000e+00
0.000000e+00
3.136908e-06
3.127869e-06
3.118792e-06
3.109679e-06
3.100532e-06
3.091353e-06
3.082143e-06
3.072905e-06
3.063639e-06
3.054349e-06
3.045036e-06
3.035703e-06
3.026352e-06
3.016987e-06
3.007610e-06
2.998223e-06
2.988832e-06
2.979438e-06
2.970045e-06
2.960658e-06
2.951280e-06
2.941916e-06
2.932571e-06
2.923250e-06
2.913957e-06
2.904699e-06
2.895482e-06
2.886311e-06
2.877195e-06
2.868139e-06
2.859151e-06
2.850241e-06
2.841416e-06
2.832686e-06
2.824060e-06
2.815550e-06
2.807166e-06
2.798921e-06
2.790827e-06
2.782899e-06
2.775151e-06
2.767599e-06
2.760259e-06
2.753150e-06
2.746292e-06
2.739705e-06
2.733411e-06
2.727436e-06
2.721804e-06
2.716545e-06
2.711688e-06
2.707266e-06
2.703315e-06
2.699873e-06
2.696983e-06
2.694688e-06
2.693039e-06
2.692090e-06
2.691898e-06
2.692529e-06
2.694053e-06
2.696547e-06
2.700097e-06
2.704795e-06
2.710746e-06
2.718065e-06
2.726879e-06
2.737331e-06
2.749581e-06
2.763806e-06
2.780208e-06
2.799014e-06
2.820481e-06
2.844903e-06
2.872617e-06
2.904008e-06
2.939524e-06
2.979686e-06
3.025105e-06
3.076500e-06
3.134730e-06
3.200823e-06
3.276028e-06
3.361877e-06
3.460269e-06
3.573600e-06
3.704935e-06
3.858275e-06
4.038957e-06
4.254290e-06
4.514603e-06
4.835071e-06
5.239350e-06
5.777653e-06
7.029062e-06
1.409569e-05
1.897366e-05
1.194983e-05
0.000000e+00
0.000000e+00
0.000000e+00
0.000000e+00
0.000000e+00
0.000000e+00
0.000000e+00
0.000000e+00
0.000000e+00
0.000000e+00
0.000000e+00
0.000000e+00
0.000000e+00
0.000000e+00
0.000000e+00
0.000000e+00
0.000000e+00
0.000000e+00
0.000000e+00
0.000000e+00
0.000000e+00
0.000000e+00
0.000000e+00
0.000000e+00
0.000000e+00
0.000000e+00
0.000000e+00
0.000000e+00
0.000000e+00
0.000000e+00
0.000000e+00
0.000000e+00
0.000000e+00
0.000000e+00
0.000000e+00
0.000000e+00
0.000000e+00
0.000000e+00
0.000000e+00
0.000000e+00
0.000000e+00
0.000000e+00
0.000000e+00
0.000000e+00
0.000000e+00
0.000000e+00
0.000000e+00
0.000000e+00
0.000000e+00
0.000000e+00
0.000000e+00
0.000000e+00
0.000000e+00
0.000000e+00
0.000000e+00
0.000000e+00
0.000000e+00
0.000000e+00
0.000000e+00
0.000000e+00
0.000000e+00
0.000000e+00
0.000000e+00
0.000000e+00
0.000000e+00
0.000000e+00
0.000000e+00
0.000000e+00
0.000000e+00
0.000000e+00
0.000000e+00
0.000000e+00
0.000000e+00
0.000000e+00
0.000000e+00
0.000000e+00
0.000000e+00
0.000000e+00
0.000000e+00
0.000000e+00
0.000000e+00
0.000000e+00
0.000000e+00
0.000000e+00
0.000000e+00
0.000000e+00
0.000000e+00
0.000000e+00
0.000000e+00
0.000000e+00
0.000000e+00
0.000000e+00
0.000000e+00
0.000000e+00
0.000000e+00
0.000000e+00
0.000000e+00
0.000000e+00
0.000000e+00
0.000000e+00
0.000000e+00
0.000000e+00
3.109902e-06
3.100756e-06
3.091578e-06
3.082369e-06
3.073131e-06
3.063866e-06
3.054576e-06
3.045264e-06
3.035931e-06
3.026581e-06
3.017216e-06
3.007839e-06
2.998453e-06
2.989061e-06
2.979667e-06
2.970274e-06
2.960887e-06
2.951509e-06
2.942145e-06
2.932799e-06
2.923477e-06
2.914184e-06
2.904925e-06
2.895707e-06
2.886535e-06
2.877417e-06
2.868359e-06
2.859370e-06
2.850458e-06
2.841630e-06
2.832898e-06
2.824270e-06
2.815756e-06
2.807369e-06
2.799121e-06
2.791023e-06
2.783091e-06
2.775338e-06
2.767781e-06
2.760436e-06
2.753321e-06
2.746456e-06
2.739862e-06
2.733561e-06
2.727578e-06
2.721937e-06
2.716669e-06
2.711801e-06
2.707369e-06
2.703406e-06
2.699951e-06
2.697046e-06
2.694737e-06
2.693071e-06
2.692104e-06
2.691893e-06
2.692504e-06
2.694005e-06
2.696474e-06
2.699996e-06
2.704665e-06
2.710585e-06
2.717868e-06
2.726645e-06
2.737055e-06
2.749259e-06
2.763433e-06
2.779779e-06
2.798523e-06
2.819922e-06
2.844269e-06
2.871897e-06
2.903193e-06
2.938603e-06
2.978645e-06
3.023927e-06
3.075166e-06
3.133217e-06
3.199105e-06
3.274071e-06
3.359638e-06
3.457697e-06
3.570630e-06
3.701482e-06
3.854227e-06
4.034163e-06
4.248541e-06
4.507598e-06