
    FoamFile
    {
        version     2.0;
        format      ascii;
        class       volScalarField;
        location    "0";
        object     O;
    }

dimensions      [0 0 0 0 0 0 0 ];

    internalField   nonuniform List<scalar>
    8000
(
5.104381e-03
5.122614e-03
5.141094e-03
5.159826e-03
5.178817e-03
5.198070e-03
5.217592e-03
5.237389e-03
5.257467e-03
5.277832e-03
5.298491e-03
5.319450e-03
5.340716e-03
5.362297e-03
5.384199e-03
5.406430e-03
5.428999e-03
5.451912e-03
5.475180e-03
5.498810e-03
5.522812e-03
5.547194e-03
5.571967e-03
5.597141e-03
5.622726e-03
5.648733e-03
5.675173e-03
5.702058e-03
5.729401e-03
5.757214e-03
5.785509e-03
5.814302e-03
5.843606e-03
5.873436e-03
5.903807e-03
5.934737e-03
5.966241e-03
5.998339e-03
6.031047e-03
6.064386e-03
6.098376e-03
6.133038e-03
6.168395e-03
6.204470e-03
6.241287e-03
6.278872e-03
6.317254e-03
6.356459e-03
6.396519e-03
6.437465e-03
6.479330e-03
6.522151e-03
6.565964e-03
6.610810e-03
6.656730e-03
6.703770e-03
6.751976e-03
6.801399e-03
6.852093e-03
6.904115e-03
6.957527e-03
7.012394e-03
7.068785e-03
7.126777e-03
7.186451e-03
7.247892e-03
7.311195e-03
7.376462e-03
7.443802e-03
7.513335e-03
7.585189e-03
7.659506e-03
7.736440e-03
7.816161e-03
7.898853e-03
7.984722e-03
8.073993e-03
8.166916e-03
8.263772e-03
8.364871e-03
8.470564e-03
8.581244e-03
8.697359e-03
8.819418e-03
8.948001e-03
9.083781e-03
9.227535e-03
9.380173e-03
9.542766e-03
9.716590e-03
9.903173e-03
1.010437e-02
1.032247e-02
1.056029e-02
1.082141e-02
1.111005e-02
1.141981e-02
1.127492e-02
4.631609e-03
2.447418e-04
7.731827e-06
2.500521e-08
0.000000e+00
0.000000e+00
0.000000e+00
0.000000e+00
0.000000e+00
0.000000e+00
0.000000e+00
0.000000e+00
0.000000e+00
0.000000e+00
0.000000e+00
0.000000e+00
0.000000e+00
0.000000e+00
0.000000e+00
0.000000e+00
0.000000e+00
0.000000e+00
0.000000e+00
0.000000e+00
0.000000e+00
0.000000e+00
0.000000e+00
0.000000e+00
0.000000e+00
0.000000e+00
0.000000e+00
0.000000e+00
0.000000e+00
0.000000e+00
0.000000e+00
0.000000e+00
0.000000e+00
0.000000e+00
0.000000e+00
0.000000e+00
0.000000e+00
0.000000e+00
0.000000e+00
0.000000e+00
0.000000e+00
0.000000e+00
0.000000e+00
0.000000e+00
0.000000e+00
0.000000e+00
0.000000e+00
0.000000e+00
0.000000e+00
0.000000e+00
0.000000e+00
0.000000e+00
0.000000e+00
0.000000e+00
0.000000e+00
0.000000e+00
0.000000e+00
0.000000e+00
0.000000e+00
0.000000e+00
0.000000e+00
0.000000e+00
0.000000e+00
0.000000e+00
0.000000e+00
0.000000e+00
0.000000e+00
0.000000e+00
0.000000e+00
0.000000e+00
0.000000e+00
0.000000e+00
0.000000e+00
0.000000e+00
0.000000e+00
0.000000e+00
0.000000e+00
0.000000e+00
0.000000e+00
0.000000e+00
0.000000e+00
0.000000e+00
0.000000e+00
0.000000e+00
0.000000e+00
0.000000e+00
0.000000e+00
0.000000e+00
0.000000e+00
0.000000e+00
0.000000e+00
0.000000e+00
0.000000e+00
0.000000e+00
0.000000e+00
0.000000e+00
0.000000e+00
0.000000e+00
5.051539e-03
5.069067e-03
5.086826e-03
5.104823e-03
5.123062e-03
5.141549e-03
5.160287e-03
5.179284e-03
5.198544e-03
5.218073e-03
5.237877e-03
5.257962e-03
5.278334e-03
5.299000e-03
5.319966e-03
5.341240e-03
5.362828e-03
5.384738e-03
5.406978e-03
5.429554e-03
5.452477e-03
5.475753e-03
5.499392e-03
5.523403e-03
5.547795e-03
5.572577e-03
5.597761e-03
5.623356e-03
5.649374e-03
5.675825e-03
5.702721e-03
5.730075e-03
5.757899e-03
5.786207e-03
5.815012e-03
5.844328e-03
5.874171e-03
5.904556e-03
5.935500e-03
5.967019e-03
5.999131e-03
6.031854e-03
6.065209e-03
6.099215e-03
6.133894e-03
6.169268e-03
6.205360e-03
6.242196e-03
6.279801e-03
6.318202e-03
6.357428e-03
6.397509e-03
6.438477e-03
6.480365e-03
6.523210e-03
6.567048e-03
6.611919e-03
6.657867e-03
6.704934e-03
6.753169e-03
6.802623e-03
6.853349e-03
6.905404e-03
6.958850e-03
7.013754e-03
7.070183e-03
7.128215e-03
7.187931e-03
7.249416e-03
7.312766e-03
7.378083e-03
7.445475e-03
7.515062e-03
7.586975e-03
7.661354e-03
7.738355e-03
7.818146e-03
7.900913e-03
7.986862e-03
8.076219e-03
8.169235e-03
8.266191e-03
8.367398e-03
8.473208e-03
8.584015e-03
8.700269e-03
8.822480e-03
8.951231e-03
9.087195e-03
9.231155e-03
9.384023e-03
9.546875e-03
9.720991e-03
9.907908e-03
1.010949e-02
1.032803e-02
1.056638e-02
1.082812e-02
1.111748e-02
1.142693e-02
1.123730e-02
4.397363e-03
2.253918e-04
7.086184e-06
1.070439e-08
0.000000e+00
0.000000e+00
0.000000e+00
0.000000e+00
0.000000e+00
0.000000e+00
0.000000e+00
0.000000e+00
0.000000e+00
0.000000e+00
0.000000e+00
0.000000e+00
0.000000e+00
0.000000e+00
0.000000e+00
0.000000e+00
0.000000e+00
0.000000e+00
0.000000e+00
0.000000e+00
0.000000e+00
0.000000e+00
0.000000e+00
0.000000e+00
0.000000e+00
0.000000e+00
0.000000e+00
0.000000e+00
0.000000e+00
0.000000e+00
0.000000e+00
0.000000e+00
0.000000e+00
0.000000e+00
0.000000e+00
0.000000e+00
0.000000e+00
0.000000e+00
0.000000e+00
0.000000e+00
0.000000e+00
0.000000e+00
0.000000e+00
0.000000e+00
0.000000e+00
0.000000e+00
0.000000e+00
0.000000e+00
0.000000e+00
0.000000e+00
0.000000e+00
0.000000e+00
0.000000e+00
0.000000e+00
0.000000e+00
0.000000e+00
0.000000e+00
0.000000e+00
0.000000e+00
0.000000e+00
0.000000e+00
0.000000e+00
0.000000e+00
0.000000e+00
0.000000e+00
0.000000e+00
0.000000e+00
0.000000e+00
0.000000e+00
0.000000e+00
0.000000e+00
0.000000e+00
0.000000e+00
0.000000e+00
0.000000e+00
0.000000e+00
0.000000e+00
0.000000e+00
0.000000e+00
0.000000e+00
0.000000e+00
0.000000e+00
0.000000e+00
0.000000e+00
0.000000e+00
0.000000e+00
0.000000e+00
0.000000e+00
0.000000e+00
0.000000e+00
0.000000e+00
0.000000e+00
0.000000e+00
0.000000e+00
0.000000e+00
5.008183e-03
5.025142e-03
5.042322e-03
5.059728e-03
5.077364e-03
5.095234e-03
5.113344e-03
5.131698e-03
5.150302e-03
5.169161e-03
5.188281e-03
5.207666e-03
5.227323e-03
5.247258e-03
5.267477e-03
5.287986e-03
5.308792e-03
5.329901e-03
5.351322e-03
5.373060e-03
5.395123e-03
5.417520e-03
5.440258e-03
5.463345e-03
5.486790e-03
5.510602e-03
5.534791e-03
5.559365e-03
5.584334e-03
5.609709e-03
5.635501e-03
5.661720e-03
5.688379e-03
5.715488e-03
5.743061e-03
5.771110e-03
5.799649e-03
5.828692e-03
5.858253e-03
5.888349e-03
5.918993e-03
5.950204e-03
5.981999e-03
6.014395e-03
6.047412e-03
6.081070e-03
6.115389e-03
6.150391e-03
6.186098e-03
6.222536e-03
6.259729e-03
6.297704e-03
6.336488e-03
6.376111e-03
6.416604e-03
6.457999e-03
6.500331e-03
6.543637e-03
6.587954e-03
6.633325e-03
6.679791e-03
6.727400e-03
6.776200e-03
6.826243e-03
6.877585e-03
6.930285e-03
6.984406e-03
7.040015e-03
7.097187e-03
7.155997e-03
7.216531e-03
7.278879e-03
7.343138e-03
7.409413e-03
7.477819e-03
7.548480e-03
7.621531e-03
7.697119e-03
7.775405e-03
7.856568e-03
7.940800e-03
8.028317e-03
8.119356e-03
8.214183e-03
8.313090e-03
8.416409e-03
8.524510e-03
8.637812e-03
8.756791e-03
8.881990e-03
9.014033e-03
9.153641e-03
9.301655e-03
9.459058e-03
9.627018e-03
9.806926e-03
1.000046e-02
1.020968e-02
1.043711e-02
1.068593e-02
1.096010e-02
1.126288e-02
1.152450e-02
9.386205e-03
1.265459e-03
4.542170e-05
1.204561e-06
0.000000e+00
0.000000e+00
0.000000e+00
0.000000e+00
0.000000e+00
0.000000e+00
0.000000e+00
0.000000e+00
0.000000e+00
0.000000e+00
0.000000e+00
0.000000e+00
0.000000e+00
0.000000e+00
0.000000e+00
0.000000e+00
0.000000e+00
0.000000e+00
0.000000e+00
0.000000e+00
0.000000e+00
0.000000e+00
0.000000e+00
0.000000e+00
0.000000e+00
0.000000e+00
0.000000e+00
0.000000e+00
0.000000e+00
0.000000e+00
0.000000e+00
0.000000e+00
0.000000e+00
0.000000e+00
0.000000e+00
0.000000e+00
0.000000e+00
0.000000e+00
0.000000e+00
0.000000e+00
0.000000e+00
0.000000e+00
0.000000e+00
0.000000e+00
0.000000e+00
0.000000e+00
0.000000e+00
0.000000e+00
0.000000e+00
0.000000e+00
0.000000e+00
0.000000e+00
0.000000e+00
0.000000e+00
0.000000e+00
0.000000e+00
0.000000e+00
0.000000e+00
0.000000e+00
0.000000e+00
0.000000e+00
0.000000e+00
0.000000e+00
0.000000e+00
0.000000e+00
0.000000e+00
0.000000e+00
0.000000e+00
0.000000e+00
0.000000e+00
0.000000e+00
0.000000e+00
0.000000e+00
0.000000e+00
0.000000e+00
0.000000e+00
0.000000e+00
0.000000e+00
0.000000e+00
0.000000e+00
0.000000e+00
0.000000e+00
0.000000e+00
0.000000e+00
0.000000e+00
0.000000e+00
0.000000e+00
0.000000e+00
0.000000e+00
0.000000e+00
0.000000e+00
0.000000e+00
0.000000e+00
4.977557e-03
4.994121e-03
5.010898e-03
5.027893e-03
5.045109e-03
5.062552e-03
5.080225e-03
5.098134e-03
5.116282e-03
5.134677e-03
5.153321e-03
5.172222e-03
5.191384e-03
5.210812e-03
5.230514e-03
5.250494e-03
5.270759e-03
5.291315e-03
5.312170e-03
5.333329e-03
5.354800e-03
5.376590e-03
5.398707e-03
5.421158e-03
5.443951e-03
5.467095e-03
5.490599e-03
5.514471e-03
5.538721e-03
5.563358e-03
5.588392e-03
5.613833e-03
5.639693e-03
5.665982e-03
5.692713e-03
5.719896e-03
5.747544e-03
5.775671e-03
5.804291e-03
5.833416e-03
5.863062e-03
5.893245e-03
5.923980e-03
5.955283e-03
5.987174e-03
6.019669e-03
6.052787e-03
6.086550e-03
6.120977e-03
6.156091e-03
6.191915e-03
6.228473e-03
6.265790e-03
6.303893e-03
6.342810e-03
6.382571e-03
6.423206e-03
6.464750e-03
6.507237e-03
6.550702e-03
6.595187e-03
6.640731e-03
6.687378e-03
6.735175e-03
6.784172e-03
6.834420e-03
6.885976e-03
6.938901e-03
6.993256e-03
7.049113e-03
7.106542e-03
7.165625e-03
7.226445e-03
7.289093e-03
7.353669e-03
7.420280e-03
7.489040e-03
7.560076e-03
7.633525e-03
7.709536e-03
7.788274e-03
7.869917e-03
7.954663e-03
8.042730e-03
8.134361e-03
8.229823e-03
8.329418e-03
8.433480e-03
8.542389e-03
8.656571e-03
8.776513e-03
8.902769e-03
9.035979e-03
9.176880e-03
9.326335e-03
9.485354e-03
9.655136e-03
9.837116e-03
1.003303e-02
1.024499e-02
1.047563e-02
1.072824e-02
1.100691e-02
1.131357e-02
1.151679e-02
8.082161e-03
7.649821e-04
2.601890e-05
5.880824e-07
0.000000e+00
0.000000e+00
0.000000e+00
0.000000e+00
0.000000e+00
0.000000e+00
0.000000e+00
0.000000e+00
0.000000e+00
0.000000e+00
0.000000e+00
0.000000e+00
0.000000e+00
0.000000e+00
0.000000e+00
0.000000e+00
0.000000e+00
0.000000e+00
0.000000e+00
0.000000e+00
0.000000e+00
0.000000e+00
0.000000e+00
0.000000e+00
0.000000e+00
0.000000e+00
0.000000e+00
0.000000e+00
0.000000e+00
0.000000e+00
0.000000e+00
0.000000e+00
0.000000e+00
0.000000e+00
0.000000e+00
0.000000e+00
0.000000e+00
0.000000e+00
0.000000e+00
0.000000e+00
0.000000e+00
0.000000e+00
0.000000e+00
0.000000e+00
0.000000e+00
0.000000e+00
0.000000e+00
0.000000e+00
0.000000e+00
0.000000e+00
0.000000e+00
0.000000e+00
0.000000e+00
0.000000e+00
0.000000e+00
0.000000e+00
0.000000e+00
0.000000e+00
0.000000e+00
0.000000e+00
0.000000e+00
0.000000e+00
0.000000e+00
0.000000e+00
0.000000e+00
0.000000e+00
0.000000e+00
0.000000e+00
0.000000e+00
0.000000e+00
0.000000e+00
0.000000e+00
0.000000e+00
0.000000e+00
0.000000e+00
0.000000e+00
0.000000e+00
0.000000e+00
0.000000e+00
0.000000e+00
0.000000e+00
0.000000e+00
0.000000e+00
0.000000e+00
0.000000e+00
0.000000e+00
0.000000e+00
0.000000e+00
0.000000e+00
0.000000e+00
0.000000e+00
4.961741e-03
4.978103e-03
4.994674e-03
5.011459e-03
5.028461e-03
5.045684e-03
5.063134e-03
5.080815e-03
5.098732e-03
5.116889e-03
5.135291e-03
5.153944e-03
5.172853e-03
5.192024e-03
5.211462e-03
5.231172e-03
5.251162e-03
5.271436e-03
5.292002e-03
5.312867e-03
5.334036e-03
5.355518e-03
5.377318e-03
5.399446e-03
5.421908e-03
5.444713e-03
5.467869e-03
5.491385e-03
5.515270e-03
5.539532e-03
5.564182e-03
5.589229e-03
5.614685e-03
5.640559e-03
5.666862e-03
5.693607e-03
5.720806e-03
5.748470e-03
5.776613e-03
5.805249e-03
5.834391e-03
5.864055e-03
5.894256e-03
5.925009e-03
5.956332e-03
5.988242e-03
6.020757e-03
6.053897e-03
6.087682e-03
6.122131e-03
6.157269e-03
6.193116e-03
6.229699e-03
6.267041e-03
6.305171e-03
6.344115e-03
6.383905e-03
6.424570e-03
6.466145e-03
6.508663e-03
6.552162e-03
6.596681e-03
6.642260e-03
6.688945e-03
6.736781e-03
6.785819e-03
6.836109e-03
6.887710e-03
6.940681e-03
6.995085e-03
7.050993e-03
7.108476e-03
7.167615e-03
7.228494e-03
7.291204e-03
7.355846e-03
7.422526e-03
7.491360e-03
7.562474e-03
7.636005e-03
7.712104e-03
7.790935e-03
7.872678e-03
7.957530e-03
8.045712e-03
8.137465e-03
8.233060e-03
8.332797e-03
8.437014e-03
8.546091e-03
8.660456e-03
8.780598e-03
8.907074e-03
9.040526e-03
9.181697e-03
9.331452e-03
9.490808e-03
9.660970e-03
9.843383e-03
1.003979e-02
1.025233e-02
1.048364e-02
1.073705e-02
1.101665e-02
1.132400e-02
1.150978e-02
7.773565e-03
6.876771e-04
2.318527e-05
4.987245e-07
0.000000e+00
0.000000e+00
0.000000e+00
0.000000e+00
0.000000e+00
0.000000e+00
0.000000e+00
0.000000e+00
0.000000e+00
0.000000e+00
0.000000e+00
0.000000e+00
0.000000e+00
0.000000e+00
0.000000e+00
0.000000e+00
0.000000e+00
0.000000e+00
0.000000e+00
0.000000e+00
0.000000e+00
0.000000e+00
0.000000e+00
0.000000e+00
0.000000e+00
0.000000e+00
0.000000e+00
0.000000e+00
0.000000e+00
0.000000e+00
0.000000e+00
0.000000e+00
0.000000e+00
0.000000e+00
0.000000e+00
0.000000e+00
0.000000e+00
0.000000e+00
0.000000e+00
0.000000e+00
0.000000e+00
0.000000e+00
0.000000e+00
0.000000e+00
0.000000e+00
0.000000e+00
0.000000e+00
0.000000e+00
0.000000e+00
0.000000e+00
0.000000e+00
0.000000e+00
0.000000e+00
0.000000e+00
0.000000e+00
0.000000e+00
0.000000e+00
0.000000e+00
0.000000e+00
0.000000e+00
0.000000e+00
0.000000e+00
0.000000e+00
0.000000e+00
0.000000e+00
0.000000e+00
0.000000e+00
0.000000e+00
0.000000e+00
0.000000e+00
0.000000e+00
0.000000e+00
0.000000e+00
0.000000e+00
0.000000e+00
0.000000e+00
0.000000e+00
0.000000e+00
0.000000e+00
0.000000e+00
0.000000e+00
0.000000e+00
0.000000e+00
0.000000e+00
0.000000e+00
0.000000e+00
0.000000e+00
0.000000e+00
0.000000e+00
0.000000e+00
4.961741e-03
4.978103e-03
4.994674e-03
5.011459e-03
5.028461e-03
5.045684e-03
5.063134e-03
5.080815e-03
5.098732e-03
5.116889e-03
5.135291e-03
5.153944e-03
5.172853e-03
5.192024e-03
5.211462e-03
5.231172e-03
5.251162e-03
5.271436e-03
5.292002e-03
5.312867e-03
5.334036e-03
5.355518e-03
5.377318e-03
5.399446e-03
5.421908e-03
5.444713e-03
5.467869e-03
5.491385e-03
5.515270e-03
5.539532e-03
5.564182e-03
5.589229e-03
5.614685e-03
5.640559e-03
5.666862e-03
5.693607e-03
5.720806e-03
5.748470e-03
5.776613e-03
5.805249e-03
5.834391e-03
5.864055e-03
5.894256e-03
5.925009e-03
5.956332e-03
5.988242e-03
6.020757e-03
6.053897e-03
6.087682e-03
6.122131e-03
6.157269e-03
6.193116e-03
6.229699e-03
6.267041e-03
6.305171e-03
6.344115e-03
6.383905e-03
6.424570e-03
6.466145e-03
6.508663e-03
6.552162e-03
6.596681e-03
6.642260e-03
6.688945e-03
6.736781e-03
6.785819e-03
6.836109e-03
6.887710e-03
6.940681e-03
6.995085e-03
7.050993e-03
7.108476e-03
7.167615e-03
7.228494e-03
7.291204e-03
7.355846e-03
7.422526e-03
7.491360e-03
7.562474e-03
7.636005e-03
7.712104e-03
7.790935e-03
7.872678e-03
7.957530e-03
8.045712e-03
8.137465e-03
8.233060e-03
8.332797e-03
8.437014e-03
8.546091e-03
8.660456e-03
8.780598e-03
8.907074e-03
9.040526e-03
9.181697e-03
9.331452e-03
9.490808e-03
9.660970e-03
9.843383e-03
1.003979e-02
1.025233e-02
1.048364e-02
1.073705e-02
1.101665e-02
1.132400e-02
1.150978e-02
7.773565e-03
6.876771e-04
2.318527e-05
4.987245e-07
0.000000e+00
0.000000e+00
0.000000e+00
0.000000e+00
0.000000e+00
0.000000e+00
0.000000e+00
0.000000e+00
0.000000e+00
0.000000e+00
0.000000e+00
0.000000e+00
0.000000e+00
0.000000e+00
0.000000e+00
0.000000e+00
0.000000e+00
0.000000e+00
0.000000e+00
0.000000e+00
0.000000e+00
0.000000e+00
0.000000e+00
0.000000e+00
0.000000e+00
0.000000e+00
0.000000e+00
0.000000e+00
0.000000e+00
0.000000e+00
0.000000e+00
0.000000e+00
0.000000e+00
0.000000e+00
0.000000e+00
0.000000e+00
0.000000e+00
0.000000e+00
0.000000e+00
0.000000e+00
0.000000e+00
0.000000e+00
0.000000e+00
0.000000e+00
0.000000e+00
0.000000e+00
0.000000e+00
0.000000e+00
0.000000e+00
0.000000e+00
0.000000e+00
0.000000e+00
0.000000e+00
0.000000e+00
0.000000e+00
0.000000e+00
0.000000e+00
0.000000e+00
0.000000e+00
0.000000e+00
0.000000e+00
0.000000e+00
0.000000e+00
0.000000e+00
0.000000e+00
0.000000e+00
0.000000e+00
0.000000e+00
0.000000e+00
0.000000e+00
0.000000e+00
0.000000e+00
0.000000e+00
0.000000e+00
0.000000e+00
0.000000e+00
0.000000e+00
0.000000e+00
0.000000e+00
0.000000e+00
0.000000e+00
0.000000e+00
0.000000e+00
0.000000e+00
0.000000e+00
0.000000e+00
0.000000e+00
0.000000e+00
0.000000e+00
0.000000e+00
4.977557e-03
4.994121e-03
5.010898e-03
5.027893e-03
5.045109e-03
5.062552e-03
5.080225e-03
5.098134e-03
5.116282e-03
5.134677e-03
5.153321e-03
5.172222e-03
5.191384e-03
5.210812e-03
5.230514e-03
5.250494e-03
5.270759e-03
5.291315e-03
5.312170e-03
5.333329e-03
5.354800e-03
5.376590e-03
5.398707e-03
5.421158e-03
5.443951e-03
5.467095e-03
5.490599e-03
5.514471e-03
5.538721e-03
5.563358e-03
5.588392e-03
5.613833e-03
5.639693e-03
5.665982e-03
5.692713e-03
5.719896e-03
5.747544e-03
5.775671e-03
5.804291e-03
5.833416e-03
5.863062e-03
5.893245e-03
5.923980e-03
5.955283e-03
5.987174e-03
6.019669e-03
6.052787e-03
6.086550e-03
6.120977e-03
6.156091e-03
6.191915e-03
6.228473e-03
6.265790e-03
6.303893e-03
6.342810e-03
6.382571e-03
6.423206e-03
6.464750e-03
6.507237e-03
6.550702e-03
6.595187e-03
6.640731e-03
6.687378e-03
6.735175e-03
6.784172e-03
6.834420e-03
6.885976e-03
6.938901e-03
6.993256e-03
7.049113e-03
7.106542e-03
7.165625e-03
7.226445e-03
7.289093e-03
7.353669e-03
7.420280e-03
7.489040e-03
7.560076e-03
7.633525e-03
7.709536e-03
7.788274e-03
7.869917e-03
7.954663e-03
8.042730e-03
8.134361e-03
8.229823e-03
8.329418e-03
8.433480e-03
8.542389e-03
8.656571e-03
8.776513e-03
8.902769e-03
9.035979e-03
9.176880e-03
9.326335e-03
9.485354e-03
9.655136e-03
9.837116e-03
1.003303e-02
1.024499e-02
1.047563e-02
1.072824e-02
1.100691e-02
1.131357e-02
1.151679e-02
8.082161e-03
7.649821e-04
2.601890e-05
5.880824e-07
0.000000e+00
0.000000e+00
0.000000e+00
0.000000e+00
0.000000e+00
0.000000e+00
0.000000e+00
0.000000e+00
0.000000e+00
0.000000e+00
0.000000e+00
0.000000e+00
0.000000e+00
0.000000e+00
0.000000e+00
0.000000e+00
0.000000e+00
0.000000e+00
0.000000e+00
0.000000e+00
0.000000e+00
0.000000e+00
0.000000e+00
0.000000e+00
0.000000e+00
0.000000e+00
0.000000e+00
0.000000e+00
0.000000e+00
0.000000e+00
0.000000e+00
0.000000e+00
0.000000e+00
0.000000e+00
0.000000e+00
0.000000e+00
0.000000e+00
0.000000e+00
0.000000e+00
0.000000e+00
0.000000e+00
0.000000e+00
0.000000e+00
0.000000e+00
0.000000e+00
0.000000e+00
0.000000e+00
0.000000e+00
0.000000e+00
0.000000e+00
0.000000e+00
0.000000e+00
0.000000e+00
0.000000e+00
0.000000e+00
0.000000e+00
0.000000e+00
0.000000e+00
0.000000e+00
0.000000e+00
0.000000e+00
0.000000e+00
0.000000e+00
0.000000e+00
0.000000e+00
0.000000e+00
0.000000e+00
0.000000e+00
0.000000e+00
0.000000e+00
0.000000e+00
0.000000e+00
0.000000e+00
0.000000e+00
0.000000e+00
0.000000e+00
0.000000e+00
0.000000e+00
0.000000e+00
0.000000e+00
0.000000e+00
0.000000e+00
0.000000e+00
0.000000e+00
0.000000e+00
0.000000e+00
0.000000e+00
0.000000e+00
0.000000e+00
0.000000e+00
0.000000e+00
5.008183e-03
5.025142e-03
5.042322e-03
5.059728e-03
5.077364e-03
5.095234e-03
5.113344e-03
5.131698e-03
5.150302e-03
5.169161e-03
5.188281e-03
5.207666e-03
5.227323e-03
5.247258e-03
5.267477e-03
5.287986e-03
5.308792e-03
5.329901e-03
5.351322e-03
5.373060e-03
5.395123e-03
5.417520e-03
5.440258e-03
5.463345e-03
5.486790e-03
5.510602e-03
5.534791e-03
5.559365e-03
5.584334e-03
5.609709e-03
5.635501e-03
5.661720e-03
5.688379e-03
5.715488e-03
5.743061e-03
5.771110e-03
5.799649e-03
5.828692e-03
5.858253e-03
5.888349e-03
5.918993e-03
5.950204e-03
5.981999e-03
6.014395e-03
6.047412e-03
6.081070e-03
6.115389e-03
6.150391e-03
6.186098e-03
6.222536e-03
6.259729e-03
6.297704e-03
6.336488e-03
6.376111e-03
6.416604e-03
6.457999e-03
6.500331e-03
6.543637e-03
6.587954e-03
6.633325e-03
6.679791e-03
6.727400e-03
6.776200e-03
6.826243e-03
6.877585e-03
6.930285e-03
6.984406e-03
7.040015e-03
7.097187e-03
7.155997e-03
7.216531e-03
7.278879e-03
7.343138e-03
7.409413e-03
7.477819e-03
7.548480e-03
7.621531e-03
7.697119e-03
7.775405e-03
7.856568e-03
7.940800e-03
8.028317e-03
8.119356e-03
8.214183e-03
8.313090e-03
8.416409e-03
8.524510e-03
8.637812e-03
8.756791e-03
8.881990e-03
9.014033e-03
9.153641e-03
9.301655e-03
9.459058e-03
9.627018e-03
9.806926e-03
1.000046e-02
1.020968e-02
1.043711e-02
1.068593e-02
1.096010e-02
1.126288e-02
1.152450e-02
9.386205e-03
1.265459e-03
4.542170e-05
1.204561e-06
0.000000e+00
0.000000e+00
0.000000e+00
0.000000e+00
0.000000e+00
0.000000e+00
0.000000e+00
0.000000e+00
0.000000e+00
0.000000e+00
0.000000e+00
0.000000e+00
0.000000e+00
0.000000e+00
0.000000e+00
0.000000e+00
0.000000e+00
0.000000e+00
0.000000e+00
0.000000e+00
0.000000e+00
0.000000e+00
0.000000e+00
0.000000e+00
0.000000e+00
0.000000e+00
0.000000e+00
0.000000e+00
0.000000e+00
0.000000e+00
0.000000e+00
0.000000e+00
0.000000e+00
0.000000e+00
0.000000e+00
0.000000e+00
0.000000e+00
0.000000e+00
0.000000e+00
0.000000e+00
0.000000e+00
0.000000e+00
0.000000e+00
0.000000e+00
0.000000e+00
0.000000e+00
0.000000e+00
0.000000e+00
0.000000e+00
0.000000e+00
0.000000e+00
0.000000e+00
0.000000e+00
0.000000e+00
0.000000e+00
0.000000e+00
0.000000e+00
0.000000e+00
0.000000e+00
0.000000e+00
0.000000e+00
0.000000e+00
0.000000e+00
0.000000e+00
0.000000e+00
0.000000e+00
0.000000e+00
0.000000e+00
0.000000e+00
0.000000e+00
0.000000e+00
0.000000e+00
0.000000e+00
0.000000e+00
0.000000e+00
0.000000e+00
0.000000e+00
0.000000e+00
0.000000e+00
0.000000e+00
0.000000e+00
0.000000e+00
0.000000e+00
0.000000e+00
0.000000e+00
0.000000e+00
0.000000e+00
0.000000e+00
0.000000e+00
0.000000e+00
0.000000e+00
0.000000e+00
0.000000e+00
5.051539e-03
5.069067e-03
5.086826e-03
5.104823e-03
5.123062e-03
5.141549e-03
5.160287e-03
5.179284e-03
5.198544e-03
5.218073e-03
5.237877e-03
5.257962e-03
5.278334e-03
5.299000e-03
5.319966e-03
5.341240e-03
5.362828e-03
5.384738e-03
5.406978e-03
5.429554e-03
5.452477e-03
5.475753e-03
5.499392e-03
5.523403e-03
5.547795e-03
5.572577e-03
5.597761e-03
5.623356e-03
5.649374e-03
5.675825e-03
5.702721e-03
5.730075e-03
5.757899e-03
5.786207e-03
5.815012e-03
5.844328e-03
5.874171e-03
5.904556e-03
5.935500e-03
5.967019e-03
5.999131e-03
6.031854e-03
6.065209e-03
6.099215e-03
6.133894e-03
6.169268e-03
6.205360e-03
6.242196e-03
6.279801e-03
6.318202e-03
6.357428e-03
6.397509e-03
6.438477e-03
6.480365e-03
6.523210e-03
6.567048e-03
6.611919e-03
6.657867e-03
6.704934e-03
6.753169e-03
6.802623e-03
6.853349e-03
6.905404e-03
6.958850e-03
7.013754e-03
7.070183e-03
7.128215e-03
7.187931e-03
7.249416e-03
7.312766e-03
7.378083e-03
7.445475e-03
7.515062e-03
7.586975e-03
7.661354e-03
7.738355e-03
7.818146e-03
7.900913e-03
7.986862e-03
8.076219e-03
8.169235e-03
8.266191e-03
8.367398e-03
8.473208e-03
8.584015e-03
8.700269e-03
8.822480e-03
8.951231e-03
9.087195e-03
9.231155e-03
9.384023e-03
9.546875e-03
9.720991e-03
9.907908e-03
1.010949e-02
1.032803e-02
1.056638e-02
1.082812e-02
1.111748e-02
1.142693e-02
1.123730e-02
4.397363e-03
2.253918e-04
7.086184e-06
1.070439e-08
0.000000e+00
0.000000e+00
0.000000e+00
0.000000e+00
0.000000e+00
0.000000e+00
0.000000e+00
0.000000e+00
0.000000e+00
0.000000e+00
0.000000e+00
0.000000e+00
0.000000e+00
0.000000e+00
0.000000e+00
0.000000e+00
0.000000e+00
0.000000e+00
0.000000e+00
0.000000e+00
0.000000e+00
0.000000e+00
0.000000e+00
0.000000e+00
0.000000e+00
0.000000e+00
0.000000e+00
0.000000e+00
0.000000e+00
0.000000e+00
0.000000e+00
0.000000e+00
0.000000e+00
0.000000e+00
0.000000e+00
0.000000e+00
0.000000e+00
0.000000e+00
0.000000e+00
0.000000e+00
0.000000e+00
0.000000e+00
0.000000e+00
0.000000e+00
0.000000e+00
0.000000e+00
0.000000e+00
0.000000e+00
0.000000e+00
0.000000e+00
0.000000e+00
0.000000e+00
0.000000e+00
0.000000e+00
0.000000e+00
0.000000e+00
0.000000e+00
0.000000e+00
0.000000e+00
0.000000e+00
0.000000e+00
0.000000e+00
0.000000e+00
0.000000e+00
0.000000e+00
0.000000e+00
0.000000e+00
0.000000e+00
0.000000e+00
0.000000e+00
0.000000e+00
0.000000e+00
0.000000e+00
0.000000e+00
0.000000e+00
0.000000e+00
0.000000e+00
0.000000e+00
0.000000e+00
0.000000e+00
0.000000e+00
0.000000e+00
0.000000e+00
0.000000e+00
0.000000e+00
0.000000e+00
0.000000e+00
0.000000e+00
0.000000e+00
0.000000e+00
0.000000e+00
0.000000e+00
0.000000e+00
0.000000e+00
0.000000e+00
5.104381e-03
5.122614e-03
5.141094e-03
5.159826e-03
5.178817e-03
5.198070e-03
5.217592e-03
5.237389e-03
5.257467e-03
5.277832e-03
5.298491e-03
5.319450e-03
5.340716e-03
5.362297e-03
5.384199e-03
5.406430e-03
5.428999e-03
5.451912e-03
5.475180e-03
5.498810e-03
5.522812e-03
5.547194e-03
5.571967e-03
5.597141e-03
5.622726e-03
5.648733e-03
5.675173e-03
5.702058e-03
5.729401e-03
5.757214e-03
5.785509e-03
5.814302e-03
5.843606e-03
5.873436e-03
5.903807e-03
5.934737e-03
5.966241e-03
5.998339e-03
6.031047e-03
6.064386e-03
6.098376e-03
6.133038e-03
6.168395e-03
6.204470e-03
6.241287e-03
6.278872e-03
6.317254e-03
6.356459e-03
6.396519e-03
6.437465e-03
6.479330e-03
6.522151e-03
6.565964e-03
6.610810e-03
6.656730e-03
6.703770e-03
6.751976e-03
6.801399e-03
6.852093e-03
6.904115e-03
6.957527e-03
7.012394e-03
7.068785e-03
7.126777e-03
7.186451e-03
7.247892e-03
7.311195e-03
7.376462e-03
7.443802e-03
7.513335e-03
7.585189e-03
7.659506e-03
7.736440e-03
7.816161e-03
7.898853e-03
7.984722e-03
8.073993e-03
8.166916e-03
8.263772e-03
8.364871e-03
8.470564e-03
8.581244e-03
8.697359e-03
8.819418e-03
8.948001e-03
9.083781e-03
9.227535e-03
9.380173e-03
9.542766e-03
9.716590e-03
9.903173e-03
1.010437e-02
1.032247e-02
1.056029e-02
1.082141e-02
1.111005e-02
1.141981e-02
1.127492e-02
4.631609e-03
2.447418e-04
7.731827e-06
2.500521e-08
0.000000e+00
0.000000e+00
0.000000e+00
0.000000e+00
0.000000e+00
0.000000e+00
0.000000e+00
0.000000e+00
0.000000e+00
0.000000e+00
0.000000e+00
0.000000e+00
0.000000e+00
0.000000e+00
0.000000e+00
0.000000e+00
0.000000e+00
0.000000e+00
0.000000e+00
0.000000e+00
0.000000e+00
0.000000e+00
0.000000e+00
0.000000e+00
0.000000e+00
0.000000e+00
0.000000e+00
0.000000e+00
0.000000e+00
0.000000e+00
0.000000e+00
0.000000e+00
0.000000e+00
0.000000e+00
0.000000e+00
0.000000e+00
0.000000e+00
0.000000e+00
0.000000e+00
0.000000e+00
0.000000e+00
0.000000e+00
0.000000e+00
0.000000e+00
0.000000e+00
0.000000e+00
0.000000e+00
0.000000e+00
0.000000e+00
0.000000e+00
0.000000e+00
0.000000e+00
0.000000e+00
0.000000e+00
0.000000e+00
0.000000e+00
0.000000e+00
0.000000e+00
0.000000e+00
0.000000e+00
0.000000e+00
0.000000e+00
0.000000e+00
0.000000e+00
0.000000e+00
0.000000e+00
0.000000e+00
0.000000e+00
0.000000e+00
0.000000e+00
0.000000e+00
0.000000e+00
0.000000e+00
0.000000e+00
0.000000e+00
0.000000e+00
0.000000e+00
0.000000e+00
0.000000e+00
0.000000e+00
0.000000e+00
0.000000e+00
0.000000e+00
0.000000e+00
0.000000e+00
0.000000e+00
0.000000e+00
0.000000e+00
0.000000e+00
0.000000e+00
0.000000e+00
0.000000e+00
0.000000e+00
0.000000e+00
0.000000e+00
0.000000e+00
0.000000e+00
0.000000e+00
5.162256e-03
5.181279e-03
5.200567e-03
5.220124e-03
5.239957e-03
5.260072e-03
5.280474e-03
5.301171e-03
5.322169e-03
5.343476e-03
5.365097e-03
5.387041e-03
5.409315e-03
5.431928e-03
5.454887e-03
5.478200e-03
5.501878e-03
5.525928e-03
5.550360e-03
5.575184e-03
5.600410e-03
5.626049e-03
5.652111e-03
5.678608e-03
5.705551e-03
5.732954e-03
5.760828e-03
5.789186e-03
5.818044e-03
5.847415e-03
5.877313e-03
5.907756e-03
5.938759e-03
5.970338e-03
6.002513e-03
6.035302e-03
6.068723e-03
6.102798e-03
6.137549e-03
6.172997e-03
6.209165e-03
6.246080e-03
6.283766e-03
6.322252e-03
6.361566e-03
6.401738e-03
6.442800e-03
6.484786e-03
6.527733e-03
6.571677e-03
6.616658e-03
6.662720e-03
6.709907e-03
6.758267e-03
6.807851e-03
6.858712e-03
6.910910e-03
6.964505e-03
7.019564e-03
7.076157e-03
7.134361e-03
7.194256e-03
7.255932e-03
7.319482e-03
7.385009e-03
7.452625e-03
7.522448e-03
7.594611e-03
7.669257e-03
7.746540e-03
7.826632e-03
7.909721e-03
7.996014e-03
8.085740e-03
8.179154e-03
8.276537e-03
8.378207e-03
8.484519e-03
8.595872e-03
8.712722e-03
8.835586e-03
8.965056e-03
9.101815e-03
9.246659e-03
9.400514e-03
9.564477e-03
9.739850e-03
9.928202e-03
1.013144e-02
1.035190e-02
1.059250e-02
1.085692e-02
1.114935e-02
1.145606e-02
1.102881e-02
3.464964e-03
1.583610e-04
4.868581e-06
0.000000e+00
0.000000e+00
0.000000e+00
0.000000e+00
0.000000e+00
0.000000e+00
0.000000e+00
0.000000e+00
0.000000e+00
0.000000e+00
0.000000e+00
0.000000e+00
0.000000e+00
0.000000e+00
0.000000e+00
0.000000e+00
0.000000e+00
0.000000e+00
0.000000e+00
0.000000e+00
0.000000e+00
0.000000e+00
0.000000e+00
0.000000e+00
0.000000e+00
0.000000e+00
0.000000e+00
0.000000e+00
0.000000e+00
0.000000e+00
0.000000e+00
0.000000e+00
0.000000e+00
0.000000e+00
0.000000e+00
0.000000e+00
0.000000e+00
0.000000e+00
0.000000e+00
0.000000e+00
0.000000e+00
0.000000e+00
0.000000e+00
0.000000e+00
0.000000e+00
0.000000e+00
0.000000e+00
0.000000e+00
0.000000e+00
0.000000e+00
0.000000e+00
0.000000e+00
0.000000e+00
0.000000e+00
0.000000e+00
0.000000e+00
0.000000e+00
0.000000e+00
0.000000e+00
0.000000e+00
0.000000e+00
0.000000e+00
0.000000e+00
0.000000e+00
0.000000e+00
0.000000e+00
0.000000e+00
0.000000e+00
0.000000e+00
0.000000e+00
0.000000e+00
0.000000e+00
0.000000e+00
0.000000e+00
0.000000e+00
0.000000e+00
0.000000e+00
0.000000e+00
0.000000e+00
0.000000e+00
0.000000e+00
0.000000e+00
0.000000e+00
0.000000e+00
0.000000e+00
0.000000e+00
0.000000e+00
0.000000e+00
0.000000e+00
0.000000e+00
0.000000e+00
0.000000e+00
0.000000e+00
0.000000e+00
0.000000e+00
0.000000e+00
0.000000e+00
0.000000e+00
0.000000e+00
0.000000e+00
0.000000e+00
0.000000e+00
5.219643e-03
5.239469e-03
5.259577e-03
5.279972e-03
5.300662e-03
5.321653e-03
5.342951e-03
5.364565e-03
5.386501e-03
5.408767e-03
5.431371e-03
5.454321e-03
5.477626e-03
5.501295e-03
5.525335e-03
5.549758e-03
5.574573e-03
5.599789e-03
5.625417e-03
5.651469e-03
5.677955e-03
5.704887e-03
5.732278e-03
5.760141e-03
5.788487e-03
5.817333e-03
5.846691e-03
5.876576e-03
5.907005e-03
5.937994e-03
5.969559e-03
6.001720e-03
6.034493e-03
6.067899e-03
6.101958e-03
6.136691e-03
6.172122e-03
6.208273e-03
6.245169e-03
6.282836e-03
6.321302e-03
6.360595e-03
6.400745e-03
6.441785e-03
6.483749e-03
6.526671e-03
6.570591e-03
6.615546e-03
6.661581e-03
6.708740e-03
6.757071e-03
6.806624e-03
6.857454e-03
6.909618e-03
6.963178e-03
7.018200e-03
7.074755e-03
7.132918e-03
7.192772e-03
7.254403e-03
7.317906e-03
7.383383e-03
7.450946e-03
7.520715e-03
7.592819e-03
7.667401e-03
7.744618e-03
7.824640e-03
7.907653e-03
7.993865e-03
8.083505e-03
8.176825e-03
8.274107e-03
8.375669e-03
8.481862e-03
8.593087e-03
8.709797e-03
8.832507e-03
8.961808e-03
9.098380e-03
9.243015e-03
9.396638e-03
9.560339e-03
9.735416e-03
9.923430e-03
1.012628e-02
1.034628e-02
1.058636e-02