
    FoamFile
    {
        version     2.0;
        format      ascii;
        class       volScalarField;
        location    "0";
        object     O2;
    }

dimensions      [0 0 0 0 0 0 0 ];

    internalField   nonuniform List<scalar>
    8000
(
1.460288e-02
1.462908e-02
1.465561e-02
1.468248e-02
1.470969e-02
1.473726e-02
1.476518e-02
1.479347e-02
1.482213e-02
1.485118e-02
1.488061e-02
1.491045e-02
1.494069e-02
1.497136e-02
1.500245e-02
1.503397e-02
1.506595e-02
1.509838e-02
1.513129e-02
1.516467e-02
1.519855e-02
1.523293e-02
1.526783e-02
1.530326e-02
1.533923e-02
1.537577e-02
1.541288e-02
1.545057e-02
1.548888e-02
1.552780e-02
1.556737e-02
1.560759e-02
1.564849e-02
1.569009e-02
1.573241e-02
1.577547e-02
1.581928e-02
1.586389e-02
1.590930e-02
1.595556e-02
1.600267e-02
1.605069e-02
1.609962e-02
1.614951e-02
1.620039e-02
1.625229e-02
1.630526e-02
1.635933e-02
1.641454e-02
1.647093e-02
1.652856e-02
1.658747e-02
1.664772e-02
1.670936e-02
1.677245e-02
1.683705e-02
1.690323e-02
1.697106e-02
1.704063e-02
1.711200e-02
1.718528e-02
1.726055e-02
1.733792e-02
1.741750e-02
1.749941e-02
1.758378e-02
1.767075e-02
1.776048e-02
1.785313e-02
1.794888e-02
1.804793e-02
1.815051e-02
1.825687e-02
1.836726e-02
1.848199e-02
1.860140e-02
1.872585e-02
1.885578e-02
1.899165e-02
1.913400e-02
1.928345e-02
1.944071e-02
1.960659e-02
1.978205e-02
1.996819e-02
2.016635e-02
2.037808e-02
2.060531e-02
2.085036e-02
2.111612e-02
2.140622e-02
2.172534e-02
2.207962e-02
2.247733e-02
2.293000e-02
2.345522e-02
2.411509e-02
2.644811e-02
6.078510e-02
9.881176e-02
1.012750e-01
1.013612e-01
1.013621e-01
1.013621e-01
1.013621e-01
1.013621e-01
1.013621e-01
1.013621e-01
1.013621e-01
1.013621e-01
1.013621e-01
1.013621e-01
1.013621e-01
1.013621e-01
1.013621e-01
1.013621e-01
1.013621e-01
1.013621e-01
1.013621e-01
1.013621e-01
1.013621e-01
1.013621e-01
1.013621e-01
1.013621e-01
1.013621e-01
1.013621e-01
1.013621e-01
1.013621e-01
1.013621e-01
1.013621e-01
1.013621e-01
1.013621e-01
1.013621e-01
1.013621e-01
1.013621e-01
1.013621e-01
1.013621e-01
1.013621e-01
1.013621e-01
1.013621e-01
1.013621e-01
1.013621e-01
1.013621e-01
1.013621e-01
1.013621e-01
1.013621e-01
1.013621e-01
1.013621e-01
1.013621e-01
1.013621e-01
1.013621e-01
1.013621e-01
1.013621e-01
1.013621e-01
1.013621e-01
1.013621e-01
1.013621e-01
1.013621e-01
1.013621e-01
1.013621e-01
1.013621e-01
1.013621e-01
1.013621e-01
1.013621e-01
1.013621e-01
1.013621e-01
1.013621e-01
1.013621e-01
1.013621e-01
1.013621e-01
1.013621e-01
1.013621e-01
1.013621e-01
1.013621e-01
1.013621e-01
1.013621e-01
1.013621e-01
1.013621e-01
1.013621e-01
1.013621e-01
1.013621e-01
1.013621e-01
1.013621e-01
1.013621e-01
1.013621e-01
1.013621e-01
1.013621e-01
1.013621e-01
1.013621e-01
1.013621e-01
1.013621e-01
1.013621e-01
1.013621e-01
1.013621e-01
1.013621e-01
1.013621e-01
1.013621e-01
1.013621e-01
1.013621e-01
1.013621e-01
1.452681e-02
1.455207e-02
1.457763e-02
1.460352e-02
1.462973e-02
1.465627e-02
1.468314e-02
1.471036e-02
1.473793e-02
1.476587e-02
1.479416e-02
1.482284e-02
1.485189e-02
1.488134e-02
1.491118e-02
1.494144e-02
1.497211e-02
1.500321e-02
1.503475e-02
1.506674e-02
1.509918e-02
1.513210e-02
1.516549e-02
1.519938e-02
1.523377e-02
1.526869e-02
1.530413e-02
1.534012e-02
1.537667e-02
1.541379e-02
1.545150e-02
1.548982e-02
1.552876e-02
1.556834e-02
1.560858e-02
1.564950e-02
1.569112e-02
1.573345e-02
1.577653e-02
1.582036e-02
1.586499e-02
1.591042e-02
1.595670e-02
1.600384e-02
1.605187e-02
1.610083e-02
1.615074e-02
1.620165e-02
1.625358e-02
1.630657e-02
1.636066e-02
1.641590e-02
1.647233e-02
1.652999e-02
1.658893e-02
1.664921e-02
1.671088e-02
1.677401e-02
1.683865e-02
1.690487e-02
1.697274e-02
1.704235e-02
1.711377e-02
1.718709e-02
1.726242e-02
1.733984e-02
1.741948e-02
1.750145e-02
1.758588e-02
1.767291e-02
1.776271e-02
1.785543e-02
1.795126e-02
1.805040e-02
1.815307e-02
1.825951e-02
1.837001e-02
1.848485e-02
1.860438e-02
1.872896e-02
1.885902e-02
1.899505e-02
1.913756e-02
1.928720e-02
1.944466e-02
1.961076e-02
1.978646e-02
1.997289e-02
2.017135e-02
2.038344e-02
2.061108e-02
2.085660e-02
2.112290e-02
2.141365e-02
2.173355e-02
2.208878e-02
2.248768e-02
2.294187e-02
2.346921e-02
2.413555e-02
2.661940e-02
6.244852e-02
9.901123e-02
1.012819e-01
1.013616e-01
1.013621e-01
1.013621e-01
1.013621e-01
1.013621e-01
1.013621e-01
1.013621e-01
1.013621e-01
1.013621e-01
1.013621e-01
1.013621e-01
1.013621e-01
1.013621e-01
1.013621e-01
1.013621e-01
1.013621e-01
1.013621e-01
1.013621e-01
1.013621e-01
1.013621e-01
1.013621e-01
1.013621e-01
1.013621e-01
1.013621e-01
1.013621e-01
1.013621e-01
1.013621e-01
1.013621e-01
1.013621e-01
1.013621e-01
1.013621e-01
1.013621e-01
1.013621e-01
1.013621e-01
1.013621e-01
1.013621e-01
1.013621e-01
1.013621e-01
1.013621e-01
1.013621e-01
1.013621e-01
1.013621e-01
1.013621e-01
1.013621e-01
1.013621e-01
1.013621e-01
1.013621e-01
1.013621e-01
1.013621e-01
1.013621e-01
1.013621e-01
1.013621e-01
1.013621e-01
1.013621e-01
1.013621e-01
1.013621e-01
1.013621e-01
1.013621e-01
1.013621e-01
1.013621e-01
1.013621e-01
1.013621e-01
1.013621e-01
1.013621e-01
1.013621e-01
1.013621e-01
1.013621e-01
1.013621e-01
1.013621e-01
1.013621e-01
1.013621e-01
1.013621e-01
1.013621e-01
1.013621e-01
1.013621e-01
1.013621e-01
1.013621e-01
1.013621e-01
1.013621e-01
1.013621e-01
1.013621e-01
1.013621e-01
1.013621e-01
1.013621e-01
1.013621e-01
1.013621e-01
1.013621e-01
1.013621e-01
1.013621e-01
1.013621e-01
1.013621e-01
1.013621e-01
1.013621e-01
1.013621e-01
1.013621e-01
1.013621e-01
1.446424e-02
1.448873e-02
1.451352e-02
1.453861e-02
1.456401e-02
1.458973e-02
1.461576e-02
1.464213e-02
1.466882e-02
1.469586e-02
1.472325e-02
1.475098e-02
1.477909e-02
1.480756e-02
1.483641e-02
1.486565e-02
1.489528e-02
1.492532e-02
1.495577e-02
1.498664e-02
1.501794e-02
1.504969e-02
1.508189e-02
1.511455e-02
1.514769e-02
1.518132e-02
1.521544e-02
1.525008e-02
1.528524e-02
1.532093e-02
1.535718e-02
1.539400e-02
1.543140e-02
1.546939e-02
1.550800e-02
1.554724e-02
1.558713e-02
1.562768e-02
1.566893e-02
1.571088e-02
1.575355e-02
1.579698e-02
1.584119e-02
1.588619e-02
1.593201e-02
1.597869e-02
1.602624e-02
1.607471e-02
1.612411e-02
1.617448e-02
1.622586e-02
1.627829e-02
1.633179e-02
1.638642e-02
1.644220e-02
1.649920e-02
1.655746e-02
1.661702e-02
1.667795e-02
1.674029e-02
1.680412e-02
1.686949e-02
1.693648e-02
1.700515e-02
1.707560e-02
1.714790e-02
1.722215e-02
1.729845e-02
1.737689e-02
1.745761e-02
1.754072e-02
1.762635e-02
1.771466e-02
1.780580e-02
1.789996e-02
1.799731e-02
1.809808e-02
1.820249e-02
1.831080e-02
1.842329e-02
1.854028e-02
1.866213e-02
1.878923e-02
1.892202e-02
1.906102e-02
1.920679e-02
1.936000e-02
1.952140e-02
1.969188e-02
1.987245e-02
2.006434e-02
2.026898e-02
2.048810e-02
2.072380e-02
2.097866e-02
2.125591e-02
2.155966e-02
2.189525e-02
2.226975e-02
2.269286e-02
2.317846e-02
2.375256e-02
2.467700e-02
3.435885e-02
8.866344e-02
1.008792e-01
1.013458e-01
1.013621e-01
1.013621e-01
1.013621e-01
1.013621e-01
1.013621e-01
1.013621e-01
1.013621e-01
1.013621e-01
1.013621e-01
1.013621e-01
1.013621e-01
1.013621e-01
1.013621e-01
1.013621e-01
1.013621e-01
1.013621e-01
1.013621e-01
1.013621e-01
1.013621e-01
1.013621e-01
1.013621e-01
1.013621e-01
1.013621e-01
1.013621e-01
1.013621e-01
1.013621e-01
1.013621e-01
1.013621e-01
1.013621e-01
1.013621e-01
1.013621e-01
1.013621e-01
1.013621e-01
1.013621e-01
1.013621e-01
1.013621e-01
1.013621e-01
1.013621e-01
1.013621e-01
1.013621e-01
1.013621e-01
1.013621e-01
1.013621e-01
1.013621e-01
1.013621e-01
1.013621e-01
1.013621e-01
1.013621e-01
1.013621e-01
1.013621e-01
1.013621e-01
1.013621e-01
1.013621e-01
1.013621e-01
1.013621e-01
1.013621e-01
1.013621e-01
1.013621e-01
1.013621e-01
1.013621e-01
1.013621e-01
1.013621e-01
1.013621e-01
1.013621e-01
1.013621e-01
1.013621e-01
1.013621e-01
1.013621e-01
1.013621e-01
1.013621e-01
1.013621e-01
1.013621e-01
1.013621e-01
1.013621e-01
1.013621e-01
1.013621e-01
1.013621e-01
1.013621e-01
1.013621e-01
1.013621e-01
1.013621e-01
1.013621e-01
1.013621e-01
1.013621e-01
1.013621e-01
1.013621e-01
1.013621e-01
1.013621e-01
1.013621e-01
1.013621e-01
1.013621e-01
1.013621e-01
1.013621e-01
1.441995e-02
1.444391e-02
1.446816e-02
1.449270e-02
1.451754e-02
1.454268e-02
1.456813e-02
1.459390e-02
1.461999e-02
1.464640e-02
1.467315e-02
1.470025e-02
1.472769e-02
1.475548e-02
1.478365e-02
1.481218e-02
1.484109e-02
1.487039e-02
1.490009e-02
1.493019e-02
1.496071e-02
1.499165e-02
1.502302e-02
1.505484e-02
1.508712e-02
1.511986e-02
1.515307e-02
1.518678e-02
1.522098e-02
1.525570e-02
1.529095e-02
1.532673e-02
1.536307e-02
1.539998e-02
1.543747e-02
1.547557e-02
1.551427e-02
1.555362e-02
1.559361e-02
1.563428e-02
1.567563e-02
1.571770e-02
1.576049e-02
1.580405e-02
1.584838e-02
1.589351e-02
1.593947e-02
1.598629e-02
1.603398e-02
1.608260e-02
1.613215e-02
1.618269e-02
1.623423e-02
1.628683e-02
1.634051e-02
1.639532e-02
1.645130e-02
1.650850e-02
1.656696e-02
1.662674e-02
1.668789e-02
1.675047e-02
1.681454e-02
1.688016e-02
1.694742e-02
1.701638e-02
1.708711e-02
1.715972e-02
1.723430e-02
1.731093e-02
1.738973e-02
1.747082e-02
1.755433e-02
1.764038e-02
1.772914e-02
1.782075e-02
1.791541e-02
1.801330e-02
1.811463e-02
1.821965e-02
1.832862e-02
1.844181e-02
1.855956e-02
1.868223e-02
1.881021e-02
1.894397e-02
1.908401e-02
1.923094e-02
1.938541e-02
1.954821e-02
1.972024e-02
1.990255e-02
2.009639e-02
2.030323e-02
2.052487e-02
2.076346e-02
2.102169e-02
2.130290e-02
2.161138e-02
2.195270e-02
2.233428e-02
2.276637e-02
2.326382e-02
2.385863e-02
2.500364e-02
4.040201e-02
9.354582e-02
1.010824e-01
1.013531e-01
1.013621e-01
1.013621e-01
1.013621e-01
1.013621e-01
1.013621e-01
1.013621e-01
1.013621e-01
1.013621e-01
1.013621e-01
1.013621e-01
1.013621e-01
1.013621e-01
1.013621e-01
1.013621e-01
1.013621e-01
1.013621e-01
1.013621e-01
1.013621e-01
1.013621e-01
1.013621e-01
1.013621e-01
1.013621e-01
1.013621e-01
1.013621e-01
1.013621e-01
1.013621e-01
1.013621e-01
1.013621e-01
1.013621e-01
1.013621e-01
1.013621e-01
1.013621e-01
1.013621e-01
1.013621e-01
1.013621e-01
1.013621e-01
1.013621e-01
1.013621e-01
1.013621e-01
1.013621e-01
1.013621e-01
1.013621e-01
1.013621e-01
1.013621e-01
1.013621e-01
1.013621e-01
1.013621e-01
1.013621e-01
1.013621e-01
1.013621e-01
1.013621e-01
1.013621e-01
1.013621e-01
1.013621e-01
1.013621e-01
1.013621e-01
1.013621e-01
1.013621e-01
1.013621e-01
1.013621e-01
1.013621e-01
1.013621e-01
1.013621e-01
1.013621e-01
1.013621e-01
1.013621e-01
1.013621e-01
1.013621e-01
1.013621e-01
1.013621e-01
1.013621e-01
1.013621e-01
1.013621e-01
1.013621e-01
1.013621e-01
1.013621e-01
1.013621e-01
1.013621e-01
1.013621e-01
1.013621e-01
1.013621e-01
1.013621e-01
1.013621e-01
1.013621e-01
1.013621e-01
1.013621e-01
1.013621e-01
1.013621e-01
1.013621e-01
1.013621e-01
1.013621e-01
1.439705e-02
1.442074e-02
1.444471e-02
1.446897e-02
1.449352e-02
1.451837e-02
1.454352e-02
1.456898e-02
1.459476e-02
1.462086e-02
1.464728e-02
1.467405e-02
1.470115e-02
1.472860e-02
1.475641e-02
1.478459e-02
1.481313e-02
1.484206e-02
1.487137e-02
1.490108e-02
1.493120e-02
1.496173e-02
1.499268e-02
1.502407e-02
1.505591e-02
1.508820e-02
1.512095e-02
1.515418e-02
1.518791e-02
1.522213e-02
1.525686e-02
1.529213e-02
1.532793e-02
1.536429e-02
1.540122e-02
1.543873e-02
1.547684e-02
1.551557e-02
1.555493e-02
1.559495e-02
1.563564e-02
1.567702e-02
1.571911e-02
1.576193e-02
1.580551e-02
1.584986e-02
1.589502e-02
1.594101e-02
1.598785e-02
1.603558e-02
1.608423e-02
1.613381e-02
1.618438e-02
1.623596e-02
1.628859e-02
1.634231e-02
1.639716e-02
1.645318e-02
1.651042e-02
1.656892e-02
1.662874e-02
1.668994e-02
1.675257e-02
1.681669e-02
1.688237e-02
1.694968e-02
1.701869e-02
1.708949e-02
1.716217e-02
1.723680e-02
1.731351e-02
1.739239e-02
1.747356e-02
1.755714e-02
1.764328e-02
1.773213e-02
1.782385e-02
1.791860e-02
1.801660e-02
1.811806e-02
1.822321e-02
1.833230e-02
1.844565e-02
1.856355e-02
1.868639e-02
1.881456e-02
1.894851e-02
1.908878e-02
1.923594e-02
1.939067e-02
1.955377e-02
1.972612e-02
1.990879e-02
2.010303e-02
2.031034e-02
2.053250e-02
2.077170e-02
2.103063e-02
2.131268e-02
2.162215e-02
2.196467e-02
2.234775e-02
2.278173e-02
2.328169e-02
2.388128e-02
2.508875e-02
4.194641e-02
9.431626e-02
1.011121e-01
1.013543e-01
1.013621e-01
1.013621e-01
1.013621e-01
1.013621e-01
1.013621e-01
1.013621e-01
1.013621e-01
1.013621e-01
1.013621e-01
1.013621e-01
1.013621e-01
1.013621e-01
1.013621e-01
1.013621e-01
1.013621e-01
1.013621e-01
1.013621e-01
1.013621e-01
1.013621e-01
1.013621e-01
1.013621e-01
1.013621e-01
1.013621e-01
1.013621e-01
1.013621e-01
1.013621e-01
1.013621e-01
1.013621e-01
1.013621e-01
1.013621e-01
1.013621e-01
1.013621e-01
1.013621e-01
1.013621e-01
1.013621e-01
1.013621e-01
1.013621e-01
1.013621e-01
1.013621e-01
1.013621e-01
1.013621e-01
1.013621e-01
1.013621e-01
1.013621e-01
1.013621e-01
1.013621e-01
1.013621e-01
1.013621e-01
1.013621e-01
1.013621e-01
1.013621e-01
1.013621e-01
1.013621e-01
1.013621e-01
1.013621e-01
1.013621e-01
1.013621e-01
1.013621e-01
1.013621e-01
1.013621e-01
1.013621e-01
1.013621e-01
1.013621e-01
1.013621e-01
1.013621e-01
1.013621e-01
1.013621e-01
1.013621e-01
1.013621e-01
1.013621e-01
1.013621e-01
1.013621e-01
1.013621e-01
1.013621e-01
1.013621e-01
1.013621e-01
1.013621e-01
1.013621e-01
1.013621e-01
1.013621e-01
1.013621e-01
1.013621e-01
1.013621e-01
1.013621e-01
1.013621e-01
1.013621e-01
1.013621e-01
1.013621e-01
1.013621e-01
1.013621e-01
1.439705e-02
1.442074e-02
1.444471e-02
1.446897e-02
1.449352e-02
1.451837e-02
1.454352e-02
1.456898e-02
1.459476e-02
1.462086e-02
1.464728e-02
1.467405e-02
1.470115e-02
1.472860e-02
1.475641e-02
1.478459e-02
1.481313e-02
1.484206e-02
1.487137e-02
1.490108e-02
1.493120e-02
1.496173e-02
1.499268e-02
1.502407e-02
1.505591e-02
1.508820e-02
1.512095e-02
1.515418e-02
1.518791e-02
1.522213e-02
1.525686e-02
1.529213e-02
1.532793e-02
1.536429e-02
1.540122e-02
1.543873e-02
1.547684e-02
1.551557e-02
1.555493e-02
1.559495e-02
1.563564e-02
1.567702e-02
1.571911e-02
1.576193e-02
1.580551e-02
1.584986e-02
1.589502e-02
1.594101e-02
1.598785e-02
1.603558e-02
1.608423e-02
1.613381e-02
1.618438e-02
1.623596e-02
1.628859e-02
1.634231e-02
1.639716e-02
1.645318e-02
1.651042e-02
1.656892e-02
1.662874e-02
1.668994e-02
1.675257e-02
1.681669e-02
1.688237e-02
1.694968e-02
1.701869e-02
1.708949e-02
1.716217e-02
1.723680e-02
1.731351e-02
1.739239e-02
1.747356e-02
1.755714e-02
1.764328e-02
1.773213e-02
1.782385e-02
1.791860e-02
1.801660e-02
1.811806e-02
1.822321e-02
1.833230e-02
1.844565e-02
1.856355e-02
1.868639e-02
1.881456e-02
1.894851e-02
1.908878e-02
1.923594e-02
1.939067e-02
1.955377e-02
1.972612e-02
1.990879e-02
2.010303e-02
2.031034e-02
2.053250e-02
2.077170e-02
2.103063e-02
2.131268e-02
2.162215e-02
2.196467e-02
2.234775e-02
2.278173e-02
2.328169e-02
2.388128e-02
2.508875e-02
4.194641e-02
9.431626e-02
1.011121e-01
1.013543e-01
1.013621e-01
1.013621e-01
1.013621e-01
1.013621e-01
1.013621e-01
1.013621e-01
1.013621e-01
1.013621e-01
1.013621e-01
1.013621e-01
1.013621e-01
1.013621e-01
1.013621e-01
1.013621e-01
1.013621e-01
1.013621e-01
1.013621e-01
1.013621e-01
1.013621e-01
1.013621e-01
1.013621e-01
1.013621e-01
1.013621e-01
1.013621e-01
1.013621e-01
1.013621e-01
1.013621e-01
1.013621e-01
1.013621e-01
1.013621e-01
1.013621e-01
1.013621e-01
1.013621e-01
1.013621e-01
1.013621e-01
1.013621e-01
1.013621e-01
1.013621e-01
1.013621e-01
1.013621e-01
1.013621e-01
1.013621e-01
1.013621e-01
1.013621e-01
1.013621e-01
1.013621e-01
1.013621e-01
1.013621e-01
1.013621e-01
1.013621e-01
1.013621e-01
1.013621e-01
1.013621e-01
1.013621e-01
1.013621e-01
1.013621e-01
1.013621e-01
1.013621e-01
1.013621e-01
1.013621e-01
1.013621e-01
1.013621e-01
1.013621e-01
1.013621e-01
1.013621e-01
1.013621e-01
1.013621e-01
1.013621e-01
1.013621e-01
1.013621e-01
1.013621e-01
1.013621e-01
1.013621e-01
1.013621e-01
1.013621e-01
1.013621e-01
1.013621e-01
1.013621e-01
1.013621e-01
1.013621e-01
1.013621e-01
1.013621e-01
1.013621e-01
1.013621e-01
1.013621e-01
1.013621e-01
1.013621e-01
1.013621e-01
1.013621e-01
1.013621e-01
1.441995e-02
1.444391e-02
1.446816e-02
1.449270e-02
1.451754e-02
1.454268e-02
1.456813e-02
1.459390e-02
1.461999e-02
1.464640e-02
1.467315e-02
1.470025e-02
1.472769e-02
1.475548e-02
1.478365e-02
1.481218e-02
1.484109e-02
1.487039e-02
1.490009e-02
1.493019e-02
1.496071e-02
1.499165e-02
1.502302e-02
1.505484e-02
1.508712e-02
1.511986e-02
1.515307e-02
1.518678e-02
1.522098e-02
1.525570e-02
1.529095e-02
1.532673e-02
1.536307e-02
1.539998e-02
1.543747e-02
1.547557e-02
1.551427e-02
1.555362e-02
1.559361e-02
1.563428e-02
1.567563e-02
1.571770e-02
1.576049e-02
1.580405e-02
1.584838e-02
1.589351e-02
1.593947e-02
1.598629e-02
1.603398e-02
1.608260e-02
1.613215e-02
1.618269e-02
1.623423e-02
1.628683e-02
1.634051e-02
1.639532e-02
1.645130e-02
1.650850e-02
1.656696e-02
1.662674e-02
1.668789e-02
1.675047e-02
1.681454e-02
1.688016e-02
1.694742e-02
1.701638e-02
1.708711e-02
1.715972e-02
1.723430e-02
1.731093e-02
1.738973e-02
1.747082e-02
1.755433e-02
1.764038e-02
1.772914e-02
1.782075e-02
1.791541e-02
1.801330e-02
1.811463e-02
1.821965e-02
1.832862e-02
1.844181e-02
1.855956e-02
1.868223e-02
1.881021e-02
1.894397e-02
1.908401e-02
1.923094e-02
1.938541e-02
1.954821e-02
1.972024e-02
1.990255e-02
2.009639e-02
2.030323e-02
2.052487e-02
2.076346e-02
2.102169e-02
2.130290e-02
2.161138e-02
2.195270e-02
2.233428e-02
2.276637e-02
2.326382e-02
2.385863e-02
2.500364e-02
4.040201e-02
9.354582e-02
1.010824e-01
1.013531e-01
1.013621e-01
1.013621e-01
1.013621e-01
1.013621e-01
1.013621e-01
1.013621e-01
1.013621e-01
1.013621e-01
1.013621e-01
1.013621e-01
1.013621e-01
1.013621e-01
1.013621e-01
1.013621e-01
1.013621e-01
1.013621e-01
1.013621e-01
1.013621e-01
1.013621e-01
1.013621e-01
1.013621e-01
1.013621e-01
1.013621e-01
1.013621e-01
1.013621e-01
1.013621e-01
1.013621e-01
1.013621e-01
1.013621e-01
1.013621e-01
1.013621e-01
1.013621e-01
1.013621e-01
1.013621e-01
1.013621e-01
1.013621e-01
1.013621e-01
1.013621e-01
1.013621e-01
1.013621e-01
1.013621e-01
1.013621e-01
1.013621e-01
1.013621e-01
1.013621e-01
1.013621e-01
1.013621e-01
1.013621e-01
1.013621e-01
1.013621e-01
1.013621e-01
1.013621e-01
1.013621e-01
1.013621e-01
1.013621e-01
1.013621e-01
1.013621e-01
1.013621e-01
1.013621e-01
1.013621e-01
1.013621e-01
1.013621e-01
1.013621e-01
1.013621e-01
1.013621e-01
1.013621e-01
1.013621e-01
1.013621e-01
1.013621e-01
1.013621e-01
1.013621e-01
1.013621e-01
1.013621e-01
1.013621e-01
1.013621e-01
1.013621e-01
1.013621e-01
1.013621e-01
1.013621e-01
1.013621e-01
1.013621e-01
1.013621e-01
1.013621e-01
1.013621e-01
1.013621e-01
1.013621e-01
1.013621e-01
1.013621e-01
1.013621e-01
1.013621e-01
1.013621e-01
1.446424e-02
1.448873e-02
1.451352e-02
1.453861e-02
1.456401e-02
1.458973e-02
1.461576e-02
1.464213e-02
1.466882e-02
1.469586e-02
1.472325e-02
1.475098e-02
1.477909e-02
1.480756e-02
1.483641e-02
1.486565e-02
1.489528e-02
1.492532e-02
1.495577e-02
1.498664e-02
1.501794e-02
1.504969e-02
1.508189e-02
1.511455e-02
1.514769e-02
1.518132e-02
1.521544e-02
1.525008e-02
1.528524e-02
1.532093e-02
1.535718e-02
1.539400e-02
1.543140e-02
1.546939e-02
1.550800e-02
1.554724e-02
1.558713e-02
1.562768e-02
1.566893e-02
1.571088e-02
1.575355e-02
1.579698e-02
1.584119e-02
1.588619e-02
1.593201e-02
1.597869e-02
1.602624e-02
1.607471e-02
1.612411e-02
1.617448e-02
1.622586e-02
1.627829e-02
1.633179e-02
1.638642e-02
1.644220e-02
1.649920e-02
1.655746e-02
1.661702e-02
1.667795e-02
1.674029e-02
1.680412e-02
1.686949e-02
1.693648e-02
1.700515e-02
1.707560e-02
1.714790e-02
1.722215e-02
1.729845e-02
1.737689e-02
1.745761e-02
1.754072e-02
1.762635e-02
1.771466e-02
1.780580e-02
1.789996e-02
1.799731e-02
1.809808e-02
1.820249e-02
1.831080e-02
1.842329e-02
1.854028e-02
1.866213e-02
1.878923e-02
1.892202e-02
1.906102e-02
1.920679e-02
1.936000e-02
1.952140e-02
1.969188e-02
1.987245e-02
2.006434e-02
2.026898e-02
2.048810e-02
2.072380e-02
2.097866e-02
2.125591e-02
2.155966e-02
2.189525e-02
2.226975e-02
2.269286e-02
2.317846e-02
2.375256e-02
2.467700e-02
3.435885e-02
8.866344e-02
1.008792e-01
1.013458e-01
1.013621e-01
1.013621e-01
1.013621e-01
1.013621e-01
1.013621e-01
1.013621e-01
1.013621e-01
1.013621e-01
1.013621e-01
1.013621e-01
1.013621e-01
1.013621e-01
1.013621e-01
1.013621e-01
1.013621e-01
1.013621e-01
1.013621e-01
1.013621e-01
1.013621e-01
1.013621e-01
1.013621e-01
1.013621e-01
1.013621e-01
1.013621e-01
1.013621e-01
1.013621e-01
1.013621e-01
1.013621e-01
1.013621e-01
1.013621e-01
1.013621e-01
1.013621e-01
1.013621e-01
1.013621e-01
1.013621e-01
1.013621e-01
1.013621e-01
1.013621e-01
1.013621e-01
1.013621e-01
1.013621e-01
1.013621e-01
1.013621e-01
1.013621e-01
1.013621e-01
1.013621e-01
1.013621e-01
1.013621e-01
1.013621e-01
1.013621e-01
1.013621e-01
1.013621e-01
1.013621e-01
1.013621e-01
1.013621e-01
1.013621e-01
1.013621e-01
1.013621e-01
1.013621e-01
1.013621e-01
1.013621e-01
1.013621e-01
1.013621e-01
1.013621e-01
1.013621e-01
1.013621e-01
1.013621e-01
1.013621e-01
1.013621e-01
1.013621e-01
1.013621e-01
1.013621e-01
1.013621e-01
1.013621e-01
1.013621e-01
1.013621e-01
1.013621e-01
1.013621e-01
1.013621e-01
1.013621e-01
1.013621e-01
1.013621e-01
1.013621e-01
1.013621e-01
1.013621e-01
1.013621e-01
1.013621e-01
1.013621e-01
1.013621e-01
1.013621e-01
1.013621e-01
1.013621e-01
1.013621e-01
1.452681e-02
1.455207e-02
1.457763e-02
1.460352e-02
1.462973e-02
1.465627e-02
1.468314e-02
1.471036e-02
1.473793e-02
1.476587e-02
1.479416e-02
1.482284e-02
1.485189e-02
1.488134e-02
1.491118e-02
1.494144e-02
1.497211e-02
1.500321e-02
1.503475e-02
1.506674e-02
1.509918e-02
1.513210e-02
1.516549e-02
1.519938e-02
1.523377e-02
1.526869e-02
1.530413e-02
1.534012e-02
1.537667e-02
1.541379e-02
1.545150e-02
1.548982e-02
1.552876e-02
1.556834e-02
1.560858e-02
1.564950e-02
1.569112e-02
1.573345e-02
1.577653e-02
1.582036e-02
1.586499e-02
1.591042e-02
1.595670e-02
1.600384e-02
1.605187e-02
1.610083e-02
1.615074e-02
1.620165e-02
1.625358e-02
1.630657e-02
1.636066e-02
1.641590e-02
1.647233e-02
1.652999e-02
1.658893e-02
1.664921e-02
1.671088e-02
1.677401e-02
1.683865e-02
1.690487e-02
1.697274e-02
1.704235e-02
1.711377e-02
1.718709e-02
1.726242e-02
1.733984e-02
1.741948e-02
1.750145e-02
1.758588e-02
1.767291e-02
1.776271e-02
1.785543e-02
1.795126e-02
1.805040e-02
1.815307e-02
1.825951e-02
1.837001e-02
1.848485e-02
1.860438e-02
1.872896e-02
1.885902e-02
1.899505e-02
1.913756e-02
1.928720e-02
1.944466e-02
1.961076e-02
1.978646e-02
1.997289e-02
2.017135e-02
2.038344e-02
2.061108e-02
2.085660e-02
2.112290e-02
2.141365e-02
2.173355e-02
2.208878e-02
2.248768e-02
2.294187e-02
2.346921e-02
2.413555e-02
2.661940e-02
6.244852e-02
9.901123e-02
1.012819e-01
1.013616e-01
1.013621e-01
1.013621e-01
1.013621e-01
1.013621e-01
1.013621e-01
1.013621e-01
1.013621e-01
1.013621e-01
1.013621e-01
1.013621e-01
1.013621e-01
1.013621e-01
1.013621e-01
1.013621e-01
1.013621e-01
1.013621e-01
1.013621e-01
1.013621e-01
1.013621e-01
1.013621e-01
1.013621e-01
1.013621e-01
1.013621e-01
1.013621e-01
1.013621e-01
1.013621e-01
1.013621e-01
1.013621e-01
1.013621e-01
1.013621e-01
1.013621e-01
1.013621e-01
1.013621e-01
1.013621e-01
1.013621e-01
1.013621e-01
1.013621e-01
1.013621e-01
1.013621e-01
1.013621e-01
1.013621e-01
1.013621e-01
1.013621e-01
1.013621e-01
1.013621e-01
1.013621e-01
1.013621e-01
1.013621e-01
1.013621e-01
1.013621e-01
1.013621e-01
1.013621e-01
1.013621e-01
1.013621e-01
1.013621e-01
1.013621e-01
1.013621e-01
1.013621e-01
1.013621e-01
1.013621e-01
1.013621e-01
1.013621e-01
1.013621e-01
1.013621e-01
1.013621e-01
1.013621e-01
1.013621e-01
1.013621e-01
1.013621e-01
1.013621e-01
1.013621e-01
1.013621e-01
1.013621e-01
1.013621e-01
1.013621e-01
1.013621e-01
1.013621e-01
1.013621e-01
1.013621e-01
1.013621e-01
1.013621e-01
1.013621e-01
1.013621e-01
1.013621e-01
1.013621e-01
1.013621e-01
1.013621e-01
1.013621e-01
1.013621e-01
1.013621e-01
1.013621e-01
1.013621e-01
1.013621e-01
1.013621e-01
1.013621e-01
1.460288e-02
1.462908e-02
1.465561e-02
1.468248e-02
1.470969e-02
1.473726e-02
1.476518e-02
1.479347e-02
1.482213e-02
1.485118e-02
1.488061e-02
1.491045e-02
1.494069e-02
1.497136e-02
1.500245e-02
1.503397e-02
1.506595e-02
1.509838e-02
1.513129e-02
1.516467e-02
1.519855e-02
1.523293e-02
1.526783e-02
1.530326e-02
1.533923e-02
1.537577e-02
1.541288e-02
1.545057e-02
1.548888e-02
1.552780e-02
1.556737e-02
1.560759e-02
1.564849e-02
1.569009e-02
1.573241e-02
1.577547e-02
1.581928e-02
1.586389e-02
1.590930e-02
1.595556e-02
1.600267e-02
1.605069e-02
1.609962e-02
1.614951e-02
1.620039e-02
1.625229e-02
1.630526e-02
1.635933e-02
1.641454e-02
1.647093e-02
1.652856e-02
1.658747e-02
1.664772e-02
1.670936e-02
1.677245e-02
1.683705e-02
1.690323e-02
1.697106e-02
1.704063e-02
1.711200e-02
1.718528e-02
1.726055e-02
1.733792e-02
1.741750e-02
1.749941e-02
1.758378e-02
1.767075e-02
1.776048e-02
1.785313e-02
1.794888e-02
1.804793e-02
1.815051e-02
1.825687e-02
1.836726e-02
1.848199e-02
1.860140e-02
1.872585e-02
1.885578e-02
1.899165e-02
1.913400e-02
1.928345e-02
1.944071e-02
1.960659e-02
1.978205e-02
1.996819e-02
2.016635e-02
2.037808e-02
2.060531e-02
2.085036e-02
2.111612e-02
2.140622e-02
2.172534e-02
2.207962e-02
2.247733e-02
2.293000e-02
2.345522e-02
2.411509e-02
2.644811e-02
6.078510e-02
9.881176e-02
1.012750e-01
1.013612e-01
1.013621e-01
1.013621e-01
1.013621e-01
1.013621e-01
1.013621e-01
1.013621e-01
1.013621e-01
1.013621e-01
1.013621e-01
1.013621e-01
1.013621e-01
1.013621e-01
1.013621e-01
1.013621e-01
1.013621e-01
1.013621e-01
1.013621e-01
1.013621e-01
1.013621e-01
1.013621e-01
1.013621e-01
1.013621e-01
1.013621e-01
1.013621e-01
1.013621e-01
1.013621e-01
1.013621e-01
1.013621e-01
1.013621e-01
1.013621e-01
1.013621e-01
1.013621e-01
1.013621e-01
1.013621e-01
1.013621e-01
1.013621e-01
1.013621e-01
1.013621e-01
1.013621e-01
1.013621e-01
1.013621e-01
1.013621e-01
1.013621e-01
1.013621e-01
1.013621e-01
1.013621e-01
1.013621e-01
1.013621e-01
1.013621e-01
1.013621e-01
1.013621e-01
1.013621e-01
1.013621e-01
1.013621e-01
1.013621e-01
1.013621e-01
1.013621e-01
1.013621e-01
1.013621e-01
1.013621e-01
1.013621e-01
1.013621e-01
1.013621e-01
1.013621e-01
1.013621e-01
1.013621e-01
1.013621e-01
1.013621e-01
1.013621e-01
1.013621e-01
1.013621e-01
1.013621e-01
1.013621e-01
1.013621e-01
1.013621e-01
1.013621e-01
1.013621e-01
1.013621e-01
1.013621e-01
1.013621e-01
1.013621e-01
1.013621e-01
1.013621e-01
1.013621e-01
1.013621e-01
1.013621e-01
1.013621e-01
1.013621e-01
1.013621e-01
1.013621e-01
1.013621e-01
1.013621e-01
1.013621e-01
1.013621e-01
1.013621e-01
1.013621e-01
1.013621e-01
1.013621e-01
1.468596e-02
1.471322e-02
1.474083e-02
1.476880e-02
1.479714e-02
1.482585e-02
1.485494e-02
1.488443e-02
1.491432e-02
1.494462e-02
1.497533e-02
1.500648e-02
1.503806e-02
1.507010e-02
1.510259e-02
1.513556e-02
1.516900e-02
1.520294e-02
1.523739e-02
1.527236e-02
1.530786e-02
1.534390e-02
1.538051e-02
1.541769e-02
1.545547e-02
1.549385e-02
1.553286e-02
1.557251e-02
1.561282e-02
1.565381e-02
1.569550e-02
1.573791e-02
1.578106e-02
1.582498e-02
1.586969e-02
1.591521e-02
1.596157e-02
1.600880e-02
1.605693e-02
1.610599e-02
1.615600e-02
1.620701e-02
1.625905e-02
1.631216e-02
1.636637e-02
1.642173e-02
1.647828e-02
1.653607e-02
1.659515e-02
1.665557e-02
1.671739e-02
1.678067e-02
1.684547e-02
1.691186e-02
1.697992e-02
1.704971e-02
1.712132e-02
1.719485e-02
1.727039e-02
1.734804e-02
1.742791e-02
1.751013e-02
1.759483e-02
1.768214e-02
1.777223e-02
1.786527e-02
1.796143e-02
1.806093e-02
1.816398e-02
1.827084e-02
1.838177e-02
1.849709e-02
1.861712e-02
1.874226e-02
1.887292e-02
1.900959e-02
1.915282e-02
1.930323e-02
1.946155e-02
1.962861e-02
1.980538e-02
1.999299e-02
2.019280e-02
2.040641e-02
2.063579e-02
2.088333e-02
2.115200e-02
2.144555e-02
2.176881e-02
2.212816e-02
2.253221e-02
2.299303e-02
2.352966e-02
2.422821e-02
2.751938e-02
6.946919e-02
9.970419e-02
1.013056e-01
1.013621e-01
1.013621e-01
1.013621e-01
1.013621e-01
1.013621e-01
1.013621e-01
1.013621e-01
1.013621e-01
1.013621e-01
1.013621e-01
1.013621e-01
1.013621e-01
1.013621e-01
1.013621e-01
1.013621e-01
1.013621e-01
1.013621e-01
1.013621e-01
1.013621e-01
1.013621e-01
1.013621e-01
1.013621e-01
1.013621e-01
1.013621e-01
1.013621e-01
1.013621e-01
1.013621e-01
1.013621e-01
1.013621e-01
1.013621e-01
1.013621e-01
1.013621e-01
1.013621e-01
1.013621e-01
1.013621e-01
1.013621e-01
1.013621e-01
1.013621e-01
1.013621e-01
1.013621e-01
1.013621e-01
1.013621e-01
1.013621e-01
1.013621e-01
1.013621e-01
1.013621e-01
1.013621e-01
1.013621e-01
1.013621e-01
1.013621e-01
1.013621e-01
1.013621e-01
1.013621e-01
1.013621e-01
1.013621e-01
1.013621e-01
1.013621e-01
1.013621e-01
1.013621e-01
1.013621e-01
1.013621e-01
1.013621e-01
1.013621e-01
1.013621e-01
1.013621e-01
1.013621e-01
1.013621e-01
1.013621e-01
1.013621e-01
1.013621e-01
1.013621e-01
1.013621e-01
1.013621e-01
1.013621e-01
1.013621e-01
1.013621e-01
1.013621e-01
1.013621e-01
1.013621e-01
1.013621e-01
1.013621e-01
1.013621e-01
1.013621e-01
1.013621e-01
1.013621e-01
1.013621e-01
1.013621e-01
1.013621e-01
1.013621e-01
1.013621e-01
1.013621e-01
1.013621e-01
1.013621e-01
1.013621e-01
1.013621e-01
1.013621e-01
1.013621e-01
1.013621e-01
1.013621e-01
1.013621e-01
1.013621e-01
1.013621e-01
1.476811e-02
1.479644e-02
1.482514e-02
1.485423e-02
1.488371e-02
1.491358e-02
1.494387e-02
1.497458e-02
1.500571e-02
1.503729e-02
1.506931e-02
1.510179e-02
1.513474e-02
1.516818e-02
1.520211e-02
1.523654e-02
1.527150e-02
1.530698e-02
1.534302e-02
1.537961e-02
1.541678e-02
1.545454e-02
1.549291e-02
1.553190e-02
1.557153e-02
1.561182e-02
1.565280e-02
1.569447e-02
1.573686e-02
1.578000e-02
1.582390e-02
1.586858e-02
1.591409e-02
1.596043e-02
1.600764e-02
1.605574e-02
1.610478e-02
1.615477e-02
1.620575e-02
1.625777e-02
1.631085e-02
1.636503e-02
1.642036e-02
1.647688e-02
1.653464e-02
1.659369e-02
1.665408e-02
1.671587e-02
1.677911e-02
1.684387e-02
1.691022e-02
1.697823e-02
1.704798e-02
1.711955e-02
1.719303e-02
1.726852e-02
1.734611e-02
1.742593e-02
1.750809e-02
1.759273e-02
1.767998e-02
1.777000e-02
1.786296e-02
1.795904e-02
1.805846e-02
1.816142e-02
1.826818e-02
1.837901e-02
1.849421e-02
1.861413e-02
1.873913e-02
1.886966e-02
1.900617e-02
1.914924e-02
1.929947e-02
1.945758e-02
1.962442e-02
1.980093e-02
1.998826e-02
2.018775e-02
2.040101e-02
2.062998e-02
2.087704e-02
2.114515e-02
2.143804e-02
2.176051e-02
2.211889e-02
2.252171e-02