
    FoamFile
    {
        version     2.0;
        format      ascii;
        class       volScalarField;
        location    "0";
        object     OH;
    }

dimensions      [0 0 0 0 0 0 0 ];

    internalField   nonuniform List<scalar>
    8000
(
1.367311e-02
1.368138e-02
1.368966e-02
1.369794e-02
1.370622e-02
1.371451e-02
1.372279e-02
1.373107e-02
1.373934e-02
1.374761e-02
1.375586e-02
1.376411e-02
1.377234e-02
1.378056e-02
1.378875e-02
1.379693e-02
1.380507e-02
1.381320e-02
1.382129e-02
1.382934e-02
1.383736e-02
1.384534e-02
1.385327e-02
1.386115e-02
1.386897e-02
1.387674e-02
1.388445e-02
1.389208e-02
1.389964e-02
1.390712e-02
1.391451e-02
1.392181e-02
1.392901e-02
1.393610e-02
1.394308e-02
1.394993e-02
1.395666e-02
1.396324e-02
1.396967e-02
1.397594e-02
1.398203e-02
1.398794e-02
1.399366e-02
1.399916e-02
1.400444e-02
1.400948e-02
1.401427e-02
1.401878e-02
1.402300e-02
1.402691e-02
1.403048e-02
1.403369e-02
1.403653e-02
1.403896e-02
1.404095e-02
1.404247e-02
1.404349e-02
1.404398e-02
1.404388e-02
1.404317e-02
1.404180e-02
1.403971e-02
1.403685e-02
1.403316e-02
1.402858e-02
1.402303e-02
1.401643e-02
1.400870e-02
1.399975e-02
1.398946e-02
1.397772e-02
1.396441e-02
1.394936e-02
1.393243e-02
1.391342e-02
1.389214e-02
1.386835e-02
1.384177e-02
1.381212e-02
1.377905e-02
1.374215e-02
1.370096e-02
1.365494e-02
1.360345e-02
1.354575e-02
1.348094e-02
1.340793e-02
1.332542e-02
1.323178e-02
1.312500e-02
1.300252e-02
1.286105e-02
1.269625e-02
1.250231e-02
1.227112e-02
1.199090e-02
1.163915e-02
1.100439e-02
5.756861e-03
3.362336e-04
1.065563e-05
2.990052e-08
0.000000e+00
0.000000e+00
0.000000e+00
0.000000e+00
0.000000e+00
0.000000e+00
0.000000e+00
0.000000e+00
0.000000e+00
0.000000e+00
0.000000e+00
0.000000e+00
0.000000e+00
0.000000e+00
0.000000e+00
0.000000e+00
0.000000e+00
0.000000e+00
0.000000e+00
0.000000e+00
0.000000e+00
0.000000e+00
0.000000e+00
0.000000e+00
0.000000e+00
0.000000e+00
0.000000e+00
0.000000e+00
0.000000e+00
0.000000e+00
0.000000e+00
0.000000e+00
0.000000e+00
0.000000e+00
0.000000e+00
0.000000e+00
0.000000e+00
0.000000e+00
0.000000e+00
0.000000e+00
0.000000e+00
0.000000e+00
0.000000e+00
0.000000e+00
0.000000e+00
0.000000e+00
0.000000e+00
0.000000e+00
0.000000e+00
0.000000e+00
0.000000e+00
0.000000e+00
0.000000e+00
0.000000e+00
0.000000e+00
0.000000e+00
0.000000e+00
0.000000e+00
0.000000e+00
0.000000e+00
0.000000e+00
0.000000e+00
0.000000e+00
0.000000e+00
0.000000e+00
0.000000e+00
0.000000e+00
0.000000e+00
0.000000e+00
0.000000e+00
0.000000e+00
0.000000e+00
0.000000e+00
0.000000e+00
0.000000e+00
0.000000e+00
0.000000e+00
0.000000e+00
0.000000e+00
0.000000e+00
0.000000e+00
0.000000e+00
0.000000e+00
0.000000e+00
0.000000e+00
0.000000e+00
0.000000e+00
0.000000e+00
0.000000e+00
0.000000e+00
0.000000e+00
0.000000e+00
0.000000e+00
0.000000e+00
0.000000e+00
0.000000e+00
0.000000e+00
0.000000e+00
1.364854e-02
1.365679e-02
1.366504e-02
1.367331e-02
1.368158e-02
1.368986e-02
1.369814e-02
1.370643e-02
1.371471e-02
1.372299e-02
1.373127e-02
1.373954e-02
1.374781e-02
1.375607e-02
1.376431e-02
1.377254e-02
1.378076e-02
1.378895e-02
1.379713e-02
1.380527e-02
1.381339e-02
1.382148e-02
1.382954e-02
1.383756e-02
1.384553e-02
1.385346e-02
1.386134e-02
1.386916e-02
1.387693e-02
1.388463e-02
1.389227e-02
1.389982e-02
1.390730e-02
1.391469e-02
1.392199e-02
1.392918e-02
1.393627e-02
1.394325e-02
1.395010e-02
1.395682e-02
1.396340e-02
1.396982e-02
1.397609e-02
1.398218e-02
1.398809e-02
1.399380e-02
1.399930e-02
1.400457e-02
1.400960e-02
1.401438e-02
1.401889e-02
1.402310e-02
1.402700e-02
1.403056e-02
1.403377e-02
1.403659e-02
1.403901e-02
1.404099e-02
1.404250e-02
1.404351e-02
1.404398e-02
1.404387e-02
1.404315e-02
1.404176e-02
1.403965e-02
1.403677e-02
1.403306e-02
1.402845e-02
1.402288e-02
1.401626e-02
1.400850e-02
1.399951e-02
1.398919e-02
1.397742e-02
1.396406e-02
1.394897e-02
1.393199e-02
1.391293e-02
1.389159e-02
1.386773e-02
1.384109e-02
1.381136e-02
1.377819e-02
1.374119e-02
1.369989e-02
1.365375e-02
1.360212e-02
1.354426e-02
1.347926e-02
1.340604e-02
1.332327e-02
1.322934e-02
1.312220e-02
1.299930e-02
1.285732e-02
1.269189e-02
1.249714e-02
1.226491e-02
1.198330e-02
1.162914e-02
1.097374e-02
5.505541e-03
3.097490e-04
9.765814e-06
1.234629e-08
0.000000e+00
0.000000e+00
0.000000e+00
0.000000e+00
0.000000e+00
0.000000e+00
0.000000e+00
0.000000e+00
0.000000e+00
0.000000e+00
0.000000e+00
0.000000e+00
0.000000e+00
0.000000e+00
0.000000e+00
0.000000e+00
0.000000e+00
0.000000e+00
0.000000e+00
0.000000e+00
0.000000e+00
0.000000e+00
0.000000e+00
0.000000e+00
0.000000e+00
0.000000e+00
0.000000e+00
0.000000e+00
0.000000e+00
0.000000e+00
0.000000e+00
0.000000e+00
0.000000e+00
0.000000e+00
0.000000e+00
0.000000e+00
0.000000e+00
0.000000e+00
0.000000e+00
0.000000e+00
0.000000e+00
0.000000e+00
0.000000e+00
0.000000e+00
0.000000e+00
0.000000e+00
0.000000e+00
0.000000e+00
0.000000e+00
0.000000e+00
0.000000e+00
0.000000e+00
0.000000e+00
0.000000e+00
0.000000e+00
0.000000e+00
0.000000e+00
0.000000e+00
0.000000e+00
0.000000e+00
0.000000e+00
0.000000e+00
0.000000e+00
0.000000e+00
0.000000e+00
0.000000e+00
0.000000e+00
0.000000e+00
0.000000e+00
0.000000e+00
0.000000e+00
0.000000e+00
0.000000e+00
0.000000e+00
0.000000e+00
0.000000e+00
0.000000e+00
0.000000e+00
0.000000e+00
0.000000e+00
0.000000e+00
0.000000e+00
0.000000e+00
0.000000e+00
0.000000e+00
0.000000e+00
0.000000e+00
0.000000e+00
0.000000e+00
0.000000e+00
0.000000e+00
0.000000e+00
0.000000e+00
0.000000e+00
0.000000e+00
1.362770e-02
1.363593e-02
1.364416e-02
1.365240e-02
1.366066e-02
1.366892e-02
1.367719e-02
1.368546e-02
1.369374e-02
1.370203e-02
1.371031e-02
1.371859e-02
1.372687e-02
1.373515e-02
1.374342e-02
1.375168e-02
1.375993e-02
1.376817e-02
1.377640e-02
1.378460e-02
1.379279e-02
1.380095e-02
1.380908e-02
1.381719e-02
1.382526e-02
1.383330e-02
1.384130e-02
1.384925e-02
1.385716e-02
1.386502e-02
1.387281e-02
1.388055e-02
1.388822e-02
1.389582e-02
1.390334e-02
1.391078e-02
1.391812e-02
1.392538e-02
1.393252e-02
1.393956e-02
1.394648e-02
1.395327e-02
1.395992e-02
1.396643e-02
1.397278e-02
1.397897e-02
1.398497e-02
1.399079e-02
1.399640e-02
1.400180e-02
1.400696e-02
1.401188e-02
1.401653e-02
1.402090e-02
1.402497e-02
1.402871e-02
1.403211e-02
1.403514e-02
1.403778e-02
1.403999e-02
1.404176e-02
1.404304e-02
1.404380e-02
1.404401e-02
1.404361e-02
1.404258e-02
1.404086e-02
1.403840e-02
1.403514e-02
1.403101e-02
1.402596e-02
1.401991e-02
1.401277e-02
1.400445e-02
1.399485e-02
1.398386e-02
1.397136e-02
1.395721e-02
1.394126e-02
1.392333e-02
1.390322e-02
1.388073e-02
1.385560e-02
1.382755e-02
1.379626e-02
1.376135e-02
1.372240e-02
1.367890e-02
1.363027e-02
1.357582e-02
1.351473e-02
1.344603e-02
1.336851e-02
1.328074e-02
1.318089e-02
1.306673e-02
1.293535e-02
1.278299e-02
1.260467e-02
1.239354e-02
1.213997e-02
1.182899e-02
1.140913e-02
9.781424e-03
1.709918e-03
6.258671e-05
1.655361e-06
0.000000e+00
0.000000e+00
0.000000e+00
0.000000e+00
0.000000e+00
0.000000e+00
0.000000e+00
0.000000e+00
0.000000e+00
0.000000e+00
0.000000e+00
0.000000e+00
0.000000e+00
0.000000e+00
0.000000e+00
0.000000e+00
0.000000e+00
0.000000e+00
0.000000e+00
0.000000e+00
0.000000e+00
0.000000e+00
0.000000e+00
0.000000e+00
0.000000e+00
0.000000e+00
0.000000e+00
0.000000e+00
0.000000e+00
0.000000e+00
0.000000e+00
0.000000e+00
0.000000e+00
0.000000e+00
0.000000e+00
0.000000e+00
0.000000e+00
0.000000e+00
0.000000e+00
0.000000e+00
0.000000e+00
0.000000e+00
0.000000e+00
0.000000e+00
0.000000e+00
0.000000e+00
0.000000e+00
0.000000e+00
0.000000e+00
0.000000e+00
0.000000e+00
0.000000e+00
0.000000e+00
0.000000e+00
0.000000e+00
0.000000e+00
0.000000e+00
0.000000e+00
0.000000e+00
0.000000e+00
0.000000e+00
0.000000e+00
0.000000e+00
0.000000e+00
0.000000e+00
0.000000e+00
0.000000e+00
0.000000e+00
0.000000e+00
0.000000e+00
0.000000e+00
0.000000e+00
0.000000e+00
0.000000e+00
0.000000e+00
0.000000e+00
0.000000e+00
0.000000e+00
0.000000e+00
0.000000e+00
0.000000e+00
0.000000e+00
0.000000e+00
0.000000e+00
0.000000e+00
0.000000e+00
0.000000e+00
0.000000e+00
0.000000e+00
0.000000e+00
0.000000e+00
0.000000e+00
0.000000e+00
1.361262e-02
1.362082e-02
1.362903e-02
1.363725e-02
1.364549e-02
1.365373e-02
1.366199e-02
1.367025e-02
1.367852e-02
1.368680e-02
1.369508e-02
1.370336e-02
1.371164e-02
1.371993e-02
1.372821e-02
1.373648e-02
1.374475e-02
1.375301e-02
1.376126e-02
1.376950e-02
1.377772e-02
1.378592e-02
1.379410e-02
1.380226e-02
1.381039e-02
1.381849e-02
1.382656e-02
1.383459e-02
1.384258e-02
1.385053e-02
1.385843e-02
1.386628e-02
1.387406e-02
1.388179e-02
1.388945e-02
1.389703e-02
1.390454e-02
1.391197e-02
1.391930e-02
1.392653e-02
1.393366e-02
1.394068e-02
1.394758e-02
1.395435e-02
1.396098e-02
1.396746e-02
1.397379e-02
1.397994e-02
1.398592e-02
1.399171e-02
1.399729e-02
1.400264e-02
1.400777e-02
1.401264e-02
1.401725e-02
1.402157e-02
1.402559e-02
1.402928e-02
1.403262e-02
1.403559e-02
1.403817e-02
1.404031e-02
1.404200e-02
1.404320e-02
1.404387e-02
1.404398e-02
1.404349e-02
1.404235e-02
1.404052e-02
1.403793e-02
1.403453e-02
1.403027e-02
1.402506e-02
1.401883e-02
1.401151e-02
1.400299e-02
1.399318e-02
1.398195e-02
1.396920e-02
1.395477e-02
1.393851e-02
1.392024e-02
1.389977e-02
1.387687e-02
1.385129e-02
1.382274e-02
1.379089e-02
1.375536e-02
1.371571e-02
1.367143e-02
1.362192e-02
1.356646e-02
1.350421e-02
1.343418e-02
1.335512e-02
1.326553e-02
1.316355e-02
1.304682e-02
1.291235e-02
1.275619e-02
1.257310e-02
1.235589e-02
1.209429e-02
1.177176e-02
1.131184e-02
8.871380e-03
1.042301e-03
3.585592e-05
8.029096e-07
0.000000e+00
0.000000e+00
0.000000e+00
0.000000e+00
0.000000e+00
0.000000e+00
0.000000e+00
0.000000e+00
0.000000e+00
0.000000e+00
0.000000e+00
0.000000e+00
0.000000e+00
0.000000e+00
0.000000e+00
0.000000e+00
0.000000e+00
0.000000e+00
0.000000e+00
0.000000e+00
0.000000e+00
0.000000e+00
0.000000e+00
0.000000e+00
0.000000e+00
0.000000e+00
0.000000e+00
0.000000e+00
0.000000e+00
0.000000e+00
0.000000e+00
0.000000e+00
0.000000e+00
0.000000e+00
0.000000e+00
0.000000e+00
0.000000e+00
0.000000e+00
0.000000e+00
0.000000e+00
0.000000e+00
0.000000e+00
0.000000e+00
0.000000e+00
0.000000e+00
0.000000e+00
0.000000e+00
0.000000e+00
0.000000e+00
0.000000e+00
0.000000e+00
0.000000e+00
0.000000e+00
0.000000e+00
0.000000e+00
0.000000e+00
0.000000e+00
0.000000e+00
0.000000e+00
0.000000e+00
0.000000e+00
0.000000e+00
0.000000e+00
0.000000e+00
0.000000e+00
0.000000e+00
0.000000e+00
0.000000e+00
0.000000e+00
0.000000e+00
0.000000e+00
0.000000e+00
0.000000e+00
0.000000e+00
0.000000e+00
0.000000e+00
0.000000e+00
0.000000e+00
0.000000e+00
0.000000e+00
0.000000e+00
0.000000e+00
0.000000e+00
0.000000e+00
0.000000e+00
0.000000e+00
0.000000e+00
0.000000e+00
0.000000e+00
0.000000e+00
0.000000e+00
1.360471e-02
1.361289e-02
1.362109e-02
1.362930e-02
1.363752e-02
1.364576e-02
1.365401e-02
1.366226e-02
1.367052e-02
1.367880e-02
1.368707e-02
1.369535e-02
1.370363e-02
1.371192e-02
1.372020e-02
1.372848e-02
1.373676e-02
1.374502e-02
1.375328e-02
1.376153e-02
1.376977e-02
1.377799e-02
1.378619e-02
1.379437e-02
1.380253e-02
1.381066e-02
1.381876e-02
1.382683e-02
1.383486e-02
1.384285e-02
1.385079e-02
1.385869e-02
1.386653e-02
1.387432e-02
1.388204e-02
1.388970e-02
1.389728e-02
1.390479e-02
1.391221e-02
1.391954e-02
1.392677e-02
1.393390e-02
1.394091e-02
1.394781e-02
1.395457e-02
1.396120e-02
1.396767e-02
1.397399e-02
1.398015e-02
1.398612e-02
1.399189e-02
1.399747e-02
1.400282e-02
1.400794e-02
1.401280e-02
1.401740e-02
1.402171e-02
1.402572e-02
1.402940e-02
1.403273e-02
1.403569e-02
1.403824e-02
1.404037e-02
1.404205e-02
1.404323e-02
1.404388e-02
1.404398e-02
1.404347e-02
1.404230e-02
1.404044e-02
1.403783e-02
1.403441e-02
1.403011e-02
1.402487e-02
1.401861e-02
1.401125e-02
1.400269e-02
1.399283e-02
1.398156e-02
1.396875e-02
1.395426e-02
1.393794e-02
1.391960e-02
1.389905e-02
1.387607e-02
1.385039e-02
1.382174e-02
1.378978e-02
1.375412e-02
1.371432e-02
1.366988e-02
1.362017e-02
1.356451e-02
1.350202e-02
1.343171e-02
1.335232e-02
1.326235e-02
1.315993e-02
1.304267e-02
1.290754e-02
1.275058e-02
1.256649e-02
1.234799e-02
1.208469e-02
1.175965e-02
1.128933e-02
8.636537e-03
9.381145e-04
3.195134e-05
6.791986e-07
0.000000e+00
0.000000e+00
0.000000e+00
0.000000e+00
0.000000e+00
0.000000e+00
0.000000e+00
0.000000e+00
0.000000e+00
0.000000e+00
0.000000e+00
0.000000e+00
0.000000e+00
0.000000e+00
0.000000e+00
0.000000e+00
0.000000e+00
0.000000e+00
0.000000e+00
0.000000e+00
0.000000e+00
0.000000e+00
0.000000e+00
0.000000e+00
0.000000e+00
0.000000e+00
0.000000e+00
0.000000e+00
0.000000e+00
0.000000e+00
0.000000e+00
0.000000e+00
0.000000e+00
0.000000e+00
0.000000e+00
0.000000e+00
0.000000e+00
0.000000e+00
0.000000e+00
0.000000e+00
0.000000e+00
0.000000e+00
0.000000e+00
0.000000e+00
0.000000e+00
0.000000e+00
0.000000e+00
0.000000e+00
0.000000e+00
0.000000e+00
0.000000e+00
0.000000e+00
0.000000e+00
0.000000e+00
0.000000e+00
0.000000e+00
0.000000e+00
0.000000e+00
0.000000e+00
0.000000e+00
0.000000e+00
0.000000e+00
0.000000e+00
0.000000e+00
0.000000e+00
0.000000e+00
0.000000e+00
0.000000e+00
0.000000e+00
0.000000e+00
0.000000e+00
0.000000e+00
0.000000e+00
0.000000e+00
0.000000e+00
0.000000e+00
0.000000e+00
0.000000e+00
0.000000e+00
0.000000e+00
0.000000e+00
0.000000e+00
0.000000e+00
0.000000e+00
0.000000e+00
0.000000e+00
0.000000e+00
0.000000e+00
0.000000e+00
0.000000e+00
1.360471e-02
1.361289e-02
1.362109e-02
1.362930e-02
1.363752e-02
1.364576e-02
1.365401e-02
1.366226e-02
1.367052e-02
1.367880e-02
1.368707e-02
1.369535e-02
1.370363e-02
1.371192e-02
1.372020e-02
1.372848e-02
1.373676e-02
1.374502e-02
1.375328e-02
1.376153e-02
1.376977e-02
1.377799e-02
1.378619e-02
1.379437e-02
1.380253e-02
1.381066e-02
1.381876e-02
1.382683e-02
1.383486e-02
1.384285e-02
1.385079e-02
1.385869e-02
1.386653e-02
1.387432e-02
1.388204e-02
1.388970e-02
1.389728e-02
1.390479e-02
1.391221e-02
1.391954e-02
1.392677e-02
1.393390e-02
1.394091e-02
1.394781e-02
1.395457e-02
1.396120e-02
1.396767e-02
1.397399e-02
1.398015e-02
1.398612e-02
1.399189e-02
1.399747e-02
1.400282e-02
1.400794e-02
1.401280e-02
1.401740e-02
1.402171e-02
1.402572e-02
1.402940e-02
1.403273e-02
1.403569e-02
1.403824e-02
1.404037e-02
1.404205e-02
1.404323e-02
1.404388e-02
1.404398e-02
1.404347e-02
1.404230e-02
1.404044e-02
1.403783e-02
1.403441e-02
1.403011e-02
1.402487e-02
1.401861e-02
1.401125e-02
1.400269e-02
1.399283e-02
1.398156e-02
1.396875e-02
1.395426e-02
1.393794e-02
1.391960e-02
1.389905e-02
1.387607e-02
1.385039e-02
1.382174e-02
1.378978e-02
1.375412e-02
1.371432e-02
1.366988e-02
1.362017e-02
1.356451e-02
1.350202e-02
1.343171e-02
1.335232e-02
1.326235e-02
1.315993e-02
1.304267e-02
1.290754e-02
1.275058e-02
1.256649e-02
1.234799e-02
1.208469e-02
1.175965e-02
1.128933e-02
8.636537e-03
9.381145e-04
3.195134e-05
6.791986e-07
0.000000e+00
0.000000e+00
0.000000e+00
0.000000e+00
0.000000e+00
0.000000e+00
0.000000e+00
0.000000e+00
0.000000e+00
0.000000e+00
0.000000e+00
0.000000e+00
0.000000e+00
0.000000e+00
0.000000e+00
0.000000e+00
0.000000e+00
0.000000e+00
0.000000e+00
0.000000e+00
0.000000e+00
0.000000e+00
0.000000e+00
0.000000e+00
0.000000e+00
0.000000e+00
0.000000e+00
0.000000e+00
0.000000e+00
0.000000e+00
0.000000e+00
0.000000e+00
0.000000e+00
0.000000e+00
0.000000e+00
0.000000e+00
0.000000e+00
0.000000e+00
0.000000e+00
0.000000e+00
0.000000e+00
0.000000e+00
0.000000e+00
0.000000e+00
0.000000e+00
0.000000e+00
0.000000e+00
0.000000e+00
0.000000e+00
0.000000e+00
0.000000e+00
0.000000e+00
0.000000e+00
0.000000e+00
0.000000e+00
0.000000e+00
0.000000e+00
0.000000e+00
0.000000e+00
0.000000e+00
0.000000e+00
0.000000e+00
0.000000e+00
0.000000e+00
0.000000e+00
0.000000e+00
0.000000e+00
0.000000e+00
0.000000e+00
0.000000e+00
0.000000e+00
0.000000e+00
0.000000e+00
0.000000e+00
0.000000e+00
0.000000e+00
0.000000e+00
0.000000e+00
0.000000e+00
0.000000e+00
0.000000e+00
0.000000e+00
0.000000e+00
0.000000e+00
0.000000e+00
0.000000e+00
0.000000e+00
0.000000e+00
0.000000e+00
0.000000e+00
1.361262e-02
1.362082e-02
1.362903e-02
1.363725e-02
1.364549e-02
1.365373e-02
1.366199e-02
1.367025e-02
1.367852e-02
1.368680e-02
1.369508e-02
1.370336e-02
1.371164e-02
1.371993e-02
1.372821e-02
1.373648e-02
1.374475e-02
1.375301e-02
1.376126e-02
1.376950e-02
1.377772e-02
1.378592e-02
1.379410e-02
1.380226e-02
1.381039e-02
1.381849e-02
1.382656e-02
1.383459e-02
1.384258e-02
1.385053e-02
1.385843e-02
1.386628e-02
1.387406e-02
1.388179e-02
1.388945e-02
1.389703e-02
1.390454e-02
1.391197e-02
1.391930e-02
1.392653e-02
1.393366e-02
1.394068e-02
1.394758e-02
1.395435e-02
1.396098e-02
1.396746e-02
1.397379e-02
1.397994e-02
1.398592e-02
1.399171e-02
1.399729e-02
1.400264e-02
1.400777e-02
1.401264e-02
1.401725e-02
1.402157e-02
1.402559e-02
1.402928e-02
1.403262e-02
1.403559e-02
1.403817e-02
1.404031e-02
1.404200e-02
1.404320e-02
1.404387e-02
1.404398e-02
1.404349e-02
1.404235e-02
1.404052e-02
1.403793e-02
1.403453e-02
1.403027e-02
1.402506e-02
1.401883e-02
1.401151e-02
1.400299e-02
1.399318e-02
1.398195e-02
1.396920e-02
1.395477e-02
1.393851e-02
1.392024e-02
1.389977e-02
1.387687e-02
1.385129e-02
1.382274e-02
1.379089e-02
1.375536e-02
1.371571e-02
1.367143e-02
1.362192e-02
1.356646e-02
1.350421e-02
1.343418e-02
1.335512e-02
1.326553e-02
1.316355e-02
1.304682e-02
1.291235e-02
1.275619e-02
1.257310e-02
1.235589e-02
1.209429e-02
1.177176e-02
1.131184e-02
8.871380e-03
1.042301e-03
3.585592e-05
8.029096e-07
0.000000e+00
0.000000e+00
0.000000e+00
0.000000e+00
0.000000e+00
0.000000e+00
0.000000e+00
0.000000e+00
0.000000e+00
0.000000e+00
0.000000e+00
0.000000e+00
0.000000e+00
0.000000e+00
0.000000e+00
0.000000e+00
0.000000e+00
0.000000e+00
0.000000e+00
0.000000e+00
0.000000e+00
0.000000e+00
0.000000e+00
0.000000e+00
0.000000e+00
0.000000e+00
0.000000e+00
0.000000e+00
0.000000e+00
0.000000e+00
0.000000e+00
0.000000e+00
0.000000e+00
0.000000e+00
0.000000e+00
0.000000e+00
0.000000e+00
0.000000e+00
0.000000e+00
0.000000e+00
0.000000e+00
0.000000e+00
0.000000e+00
0.000000e+00
0.000000e+00
0.000000e+00
0.000000e+00
0.000000e+00
0.000000e+00
0.000000e+00
0.000000e+00
0.000000e+00
0.000000e+00
0.000000e+00
0.000000e+00
0.000000e+00
0.000000e+00
0.000000e+00
0.000000e+00
0.000000e+00
0.000000e+00
0.000000e+00
0.000000e+00
0.000000e+00
0.000000e+00
0.000000e+00
0.000000e+00
0.000000e+00
0.000000e+00
0.000000e+00
0.000000e+00
0.000000e+00
0.000000e+00
0.000000e+00
0.000000e+00
0.000000e+00
0.000000e+00
0.000000e+00
0.000000e+00
0.000000e+00
0.000000e+00
0.000000e+00
0.000000e+00
0.000000e+00
0.000000e+00
0.000000e+00
0.000000e+00
0.000000e+00
0.000000e+00
0.000000e+00
0.000000e+00
1.362770e-02
1.363593e-02
1.364416e-02
1.365240e-02
1.366066e-02
1.366892e-02
1.367719e-02
1.368546e-02
1.369374e-02
1.370203e-02
1.371031e-02
1.371859e-02
1.372687e-02
1.373515e-02
1.374342e-02
1.375168e-02
1.375993e-02
1.376817e-02
1.377640e-02
1.378460e-02
1.379279e-02
1.380095e-02
1.380908e-02
1.381719e-02
1.382526e-02
1.383330e-02
1.384130e-02
1.384925e-02
1.385716e-02
1.386502e-02
1.387281e-02
1.388055e-02
1.388822e-02
1.389582e-02
1.390334e-02
1.391078e-02
1.391812e-02
1.392538e-02
1.393252e-02
1.393956e-02
1.394648e-02
1.395327e-02
1.395992e-02
1.396643e-02
1.397278e-02
1.397897e-02
1.398497e-02
1.399079e-02
1.399640e-02
1.400180e-02
1.400696e-02
1.401188e-02
1.401653e-02
1.402090e-02
1.402497e-02
1.402871e-02
1.403211e-02
1.403514e-02
1.403778e-02
1.403999e-02
1.404176e-02
1.404304e-02
1.404380e-02
1.404401e-02
1.404361e-02
1.404258e-02
1.404086e-02
1.403840e-02
1.403514e-02
1.403101e-02
1.402596e-02
1.401991e-02
1.401277e-02
1.400445e-02
1.399485e-02
1.398386e-02
1.397136e-02
1.395721e-02
1.394126e-02
1.392333e-02
1.390322e-02
1.388073e-02
1.385560e-02
1.382755e-02
1.379626e-02
1.376135e-02
1.372240e-02
1.367890e-02
1.363027e-02
1.357582e-02
1.351473e-02
1.344603e-02
1.336851e-02
1.328074e-02
1.318089e-02
1.306673e-02
1.293535e-02
1.278299e-02
1.260467e-02
1.239354e-02
1.213997e-02
1.182899e-02
1.140913e-02
9.781424e-03
1.709918e-03
6.258671e-05
1.655361e-06
0.000000e+00
0.000000e+00
0.000000e+00
0.000000e+00
0.000000e+00
0.000000e+00
0.000000e+00
0.000000e+00
0.000000e+00
0.000000e+00
0.000000e+00
0.000000e+00
0.000000e+00
0.000000e+00
0.000000e+00
0.000000e+00
0.000000e+00
0.000000e+00
0.000000e+00
0.000000e+00
0.000000e+00
0.000000e+00
0.000000e+00
0.000000e+00
0.000000e+00
0.000000e+00
0.000000e+00
0.000000e+00
0.000000e+00
0.000000e+00
0.000000e+00
0.000000e+00
0.000000e+00
0.000000e+00
0.000000e+00
0.000000e+00
0.000000e+00
0.000000e+00
0.000000e+00
0.000000e+00
0.000000e+00
0.000000e+00
0.000000e+00
0.000000e+00
0.000000e+00
0.000000e+00
0.000000e+00
0.000000e+00
0.000000e+00
0.000000e+00
0.000000e+00
0.000000e+00
0.000000e+00
0.000000e+00
0.000000e+00
0.000000e+00
0.000000e+00
0.000000e+00
0.000000e+00
0.000000e+00
0.000000e+00
0.000000e+00
0.000000e+00
0.000000e+00
0.000000e+00
0.000000e+00
0.000000e+00
0.000000e+00
0.000000e+00
0.000000e+00
0.000000e+00
0.000000e+00
0.000000e+00
0.000000e+00
0.000000e+00
0.000000e+00
0.000000e+00
0.000000e+00
0.000000e+00
0.000000e+00
0.000000e+00
0.000000e+00
0.000000e+00
0.000000e+00
0.000000e+00
0.000000e+00
0.000000e+00
0.000000e+00
0.000000e+00
0.000000e+00
0.000000e+00
0.000000e+00
0.000000e+00
1.364854e-02
1.365679e-02
1.366504e-02
1.367331e-02
1.368158e-02
1.368986e-02
1.369814e-02
1.370643e-02
1.371471e-02
1.372299e-02
1.373127e-02
1.373954e-02
1.374781e-02
1.375607e-02
1.376431e-02
1.377254e-02
1.378076e-02
1.378895e-02
1.379713e-02
1.380527e-02
1.381339e-02
1.382148e-02
1.382954e-02
1.383756e-02
1.384553e-02
1.385346e-02
1.386134e-02
1.386916e-02
1.387693e-02
1.388463e-02
1.389227e-02
1.389982e-02
1.390730e-02
1.391469e-02
1.392199e-02
1.392918e-02
1.393627e-02
1.394325e-02
1.395010e-02
1.395682e-02
1.396340e-02
1.396982e-02
1.397609e-02
1.398218e-02
1.398809e-02
1.399380e-02
1.399930e-02
1.400457e-02
1.400960e-02
1.401438e-02
1.401889e-02
1.402310e-02
1.402700e-02
1.403056e-02
1.403377e-02
1.403659e-02
1.403901e-02
1.404099e-02
1.404250e-02
1.404351e-02
1.404398e-02
1.404387e-02
1.404315e-02
1.404176e-02
1.403965e-02
1.403677e-02
1.403306e-02
1.402845e-02
1.402288e-02
1.401626e-02
1.400850e-02
1.399951e-02
1.398919e-02
1.397742e-02
1.396406e-02
1.394897e-02
1.393199e-02
1.391293e-02
1.389159e-02
1.386773e-02
1.384109e-02
1.381136e-02
1.377819e-02
1.374119e-02
1.369989e-02
1.365375e-02
1.360212e-02
1.354426e-02
1.347926e-02
1.340604e-02
1.332327e-02
1.322934e-02
1.312220e-02
1.299930e-02
1.285732e-02
1.269189e-02
1.249714e-02
1.226491e-02
1.198330e-02
1.162914e-02
1.097374e-02
5.505541e-03
3.097490e-04
9.765814e-06
1.234629e-08
0.000000e+00
0.000000e+00
0.000000e+00
0.000000e+00
0.000000e+00
0.000000e+00
0.000000e+00
0.000000e+00
0.000000e+00
0.000000e+00
0.000000e+00
0.000000e+00
0.000000e+00
0.000000e+00
0.000000e+00
0.000000e+00
0.000000e+00
0.000000e+00
0.000000e+00
0.000000e+00
0.000000e+00
0.000000e+00
0.000000e+00
0.000000e+00
0.000000e+00
0.000000e+00
0.000000e+00
0.000000e+00
0.000000e+00
0.000000e+00
0.000000e+00
0.000000e+00
0.000000e+00
0.000000e+00
0.000000e+00
0.000000e+00
0.000000e+00
0.000000e+00
0.000000e+00
0.000000e+00
0.000000e+00
0.000000e+00
0.000000e+00
0.000000e+00
0.000000e+00
0.000000e+00
0.000000e+00
0.000000e+00
0.000000e+00
0.000000e+00
0.000000e+00
0.000000e+00
0.000000e+00
0.000000e+00
0.000000e+00
0.000000e+00
0.000000e+00
0.000000e+00
0.000000e+00
0.000000e+00
0.000000e+00
0.000000e+00
0.000000e+00
0.000000e+00
0.000000e+00
0.000000e+00
0.000000e+00
0.000000e+00
0.000000e+00
0.000000e+00
0.000000e+00
0.000000e+00
0.000000e+00
0.000000e+00
0.000000e+00
0.000000e+00
0.000000e+00
0.000000e+00
0.000000e+00
0.000000e+00
0.000000e+00
0.000000e+00
0.000000e+00
0.000000e+00
0.000000e+00
0.000000e+00
0.000000e+00
0.000000e+00
0.000000e+00
0.000000e+00
0.000000e+00
0.000000e+00
0.000000e+00
0.000000e+00
0.000000e+00
1.367311e-02
1.368138e-02
1.368966e-02
1.369794e-02
1.370622e-02
1.371451e-02
1.372279e-02
1.373107e-02
1.373934e-02
1.374761e-02
1.375586e-02
1.376411e-02
1.377234e-02
1.378056e-02
1.378875e-02
1.379693e-02
1.380507e-02
1.381320e-02
1.382129e-02
1.382934e-02
1.383736e-02
1.384534e-02
1.385327e-02
1.386115e-02
1.386897e-02
1.387674e-02
1.388445e-02
1.389208e-02
1.389964e-02
1.390712e-02
1.391451e-02
1.392181e-02
1.392901e-02
1.393610e-02
1.394308e-02
1.394993e-02
1.395666e-02
1.396324e-02
1.396967e-02
1.397594e-02
1.398203e-02
1.398794e-02
1.399366e-02
1.399916e-02
1.400444e-02
1.400948e-02
1.401427e-02
1.401878e-02
1.402300e-02
1.402691e-02
1.403048e-02
1.403369e-02
1.403653e-02
1.403896e-02
1.404095e-02
1.404247e-02
1.404349e-02
1.404398e-02
1.404388e-02
1.404317e-02
1.404180e-02
1.403971e-02
1.403685e-02
1.403316e-02
1.402858e-02
1.402303e-02
1.401643e-02
1.400870e-02
1.399975e-02
1.398946e-02
1.397772e-02
1.396441e-02
1.394936e-02
1.393243e-02
1.391342e-02
1.389214e-02
1.386835e-02
1.384177e-02
1.381212e-02
1.377905e-02
1.374215e-02
1.370096e-02
1.365494e-02
1.360345e-02
1.354575e-02
1.348094e-02
1.340793e-02
1.332542e-02
1.323178e-02
1.312500e-02
1.300252e-02
1.286105e-02
1.269625e-02
1.250231e-02
1.227112e-02
1.199090e-02
1.163915e-02
1.100439e-02
5.756861e-03
3.362336e-04
1.065563e-05
2.990052e-08
0.000000e+00
0.000000e+00
0.000000e+00
0.000000e+00
0.000000e+00
0.000000e+00
0.000000e+00
0.000000e+00
0.000000e+00
0.000000e+00
0.000000e+00
0.000000e+00
0.000000e+00
0.000000e+00
0.000000e+00
0.000000e+00
0.000000e+00
0.000000e+00
0.000000e+00
0.000000e+00
0.000000e+00
0.000000e+00
0.000000e+00
0.000000e+00
0.000000e+00
0.000000e+00
0.000000e+00
0.000000e+00
0.000000e+00
0.000000e+00
0.000000e+00
0.000000e+00
0.000000e+00
0.000000e+00
0.000000e+00
0.000000e+00
0.000000e+00
0.000000e+00
0.000000e+00
0.000000e+00
0.000000e+00
0.000000e+00
0.000000e+00
0.000000e+00
0.000000e+00
0.000000e+00
0.000000e+00
0.000000e+00
0.000000e+00
0.000000e+00
0.000000e+00
0.000000e+00
0.000000e+00
0.000000e+00
0.000000e+00
0.000000e+00
0.000000e+00
0.000000e+00
0.000000e+00
0.000000e+00
0.000000e+00
0.000000e+00
0.000000e+00
0.000000e+00
0.000000e+00
0.000000e+00
0.000000e+00
0.000000e+00
0.000000e+00
0.000000e+00
0.000000e+00
0.000000e+00
0.000000e+00
0.000000e+00
0.000000e+00
0.000000e+00
0.000000e+00
0.000000e+00
0.000000e+00
0.000000e+00
0.000000e+00
0.000000e+00
0.000000e+00
0.000000e+00
0.000000e+00
0.000000e+00
0.000000e+00
0.000000e+00
0.000000e+00
0.000000e+00
0.000000e+00
0.000000e+00
0.000000e+00
0.000000e+00
0.000000e+00
0.000000e+00
0.000000e+00
0.000000e+00
1.369901e-02
1.370729e-02
1.371557e-02
1.372385e-02
1.373213e-02
1.374041e-02
1.374867e-02
1.375693e-02
1.376517e-02
1.377340e-02
1.378161e-02
1.378980e-02
1.379798e-02
1.380612e-02
1.381424e-02
1.382233e-02
1.383038e-02
1.383839e-02
1.384636e-02
1.385428e-02
1.386216e-02
1.386998e-02
1.387774e-02
1.388543e-02
1.389306e-02
1.390061e-02
1.390807e-02
1.391546e-02
1.392274e-02
1.392993e-02
1.393701e-02
1.394397e-02
1.395081e-02
1.395751e-02
1.396407e-02
1.397048e-02
1.397673e-02
1.398280e-02
1.398869e-02
1.399438e-02
1.399986e-02
1.400511e-02
1.401011e-02
1.401487e-02
1.401934e-02
1.402352e-02
1.402738e-02
1.403091e-02
1.403408e-02
1.403687e-02
1.403924e-02
1.404117e-02
1.404263e-02
1.404358e-02
1.404400e-02
1.404383e-02
1.404304e-02
1.404157e-02
1.403939e-02
1.403642e-02
1.403262e-02
1.402792e-02
1.402224e-02
1.401550e-02
1.400762e-02
1.399850e-02
1.398804e-02
1.397610e-02
1.396257e-02
1.394729e-02
1.393010e-02
1.391082e-02
1.388922e-02
1.386509e-02
1.383814e-02
1.380807e-02
1.377452e-02
1.373710e-02
1.369532e-02
1.364863e-02
1.359639e-02
1.353783e-02
1.347203e-02
1.339788e-02
1.331403e-02
1.321882e-02
1.311018e-02
1.298546e-02
1.284125e-02
1.267307e-02
1.247485e-02
1.223811e-02
1.195041e-02
1.158526e-02
1.082113e-02
4.456620e-03
2.178697e-04
6.709289e-06
0.000000e+00
0.000000e+00
0.000000e+00
0.000000e+00
0.000000e+00
0.000000e+00
0.000000e+00
0.000000e+00
0.000000e+00
0.000000e+00
0.000000e+00
0.000000e+00
0.000000e+00
0.000000e+00
0.000000e+00
0.000000e+00
0.000000e+00
0.000000e+00
0.000000e+00
0.000000e+00
0.000000e+00
0.000000e+00
0.000000e+00
0.000000e+00
0.000000e+00
0.000000e+00
0.000000e+00
0.000000e+00
0.000000e+00
0.000000e+00
0.000000e+00
0.000000e+00
0.000000e+00
0.000000e+00
0.000000e+00
0.000000e+00
0.000000e+00
0.000000e+00
0.000000e+00
0.000000e+00
0.000000e+00
0.000000e+00
0.000000e+00
0.000000e+00
0.000000e+00
0.000000e+00
0.000000e+00
0.000000e+00
0.000000e+00
0.000000e+00
0.000000e+00
0.000000e+00
0.000000e+00
0.000000e+00
0.000000e+00
0.000000e+00
0.000000e+00
0.000000e+00
0.000000e+00
0.000000e+00
0.000000e+00
0.000000e+00
0.000000e+00
0.000000e+00
0.000000e+00
0.000000e+00
0.000000e+00
0.000000e+00
0.000000e+00
0.000000e+00
0.000000e+00
0.000000e+00
0.000000e+00
0.000000e+00
0.000000e+00
0.000000e+00
0.000000e+00
0.000000e+00
0.000000e+00
0.000000e+00
0.000000e+00
0.000000e+00
0.000000e+00
0.000000e+00
0.000000e+00
0.000000e+00
0.000000e+00
0.000000e+00
0.000000e+00
0.000000e+00
0.000000e+00
0.000000e+00
0.000000e+00
0.000000e+00
0.000000e+00
0.000000e+00
0.000000e+00
0.000000e+00
0.000000e+00
0.000000e+00
0.000000e+00
0.000000e+00
1.372365e-02
1.373193e-02
1.374020e-02
1.374847e-02
1.375672e-02
1.376497e-02
1.377320e-02
1.378141e-02
1.378960e-02
1.379778e-02
1.380592e-02
1.381404e-02
1.382213e-02
1.383018e-02
1.383819e-02
1.384617e-02
1.385409e-02
1.386197e-02
1.386979e-02
1.387755e-02
1.388524e-02
1.389287e-02
1.390042e-02
1.390789e-02
1.391528e-02
1.392257e-02
1.392975e-02
1.393684e-02
1.394380e-02
1.395064e-02
1.395735e-02
1.396391e-02
1.397033e-02
1.397658e-02
1.398266e-02
1.398855e-02
1.399424e-02
1.399972e-02
1.400498e-02
1.401000e-02
1.401475e-02
1.401923e-02
1.402342e-02
1.402729e-02
1.403083e-02
1.403401e-02
1.403680e-02
1.403919e-02
1.404113e-02
1.404260e-02
1.404357e-02
1.404399e-02
1.404384e-02
1.404306e-02
1.404162e-02
1.403945e-02
1.403650e-02
1.403272e-02
1.402804e-02
1.402239e-02
1.401568e-02
1.400783e-02
1.399874e-02
1.398831e-02
1.397641e-02
1.396292e-02
1.394769e-02
1.393055e-02
1.391132e-02
1.388978e-02
1.386571e-02
1.383883e-02
1.380884e-02
1.377539e-02
1.373806e-02
1.369640e-02
1.364984e-02
1.359774e-02
1.353935e-02
1.347373e-02
1.339980e-02
1.331621e-02
1.322130e-02
1.311301e-02
1.298872e-02
1.284504e-02
1.267751e-02
1.248011e-02