
    FoamFile
    {
        version     2.0;
        format      ascii;
        class       volScalarField;
        location    "0";
        object     P;
    }

dimensions      [1 -1 -2 0 0 0 0];

    internalField   nonuniform List<scalar>
    8000
(
1.346702e+05
1.348030e+05
1.349371e+05
1.350725e+05
1.352092e+05
1.353473e+05
1.354868e+05
1.356277e+05
1.357700e+05
1.359138e+05
1.360591e+05
1.362059e+05
1.363543e+05
1.365042e+05
1.366558e+05
1.368090e+05
1.369639e+05
1.371206e+05
1.372790e+05
1.374392e+05
1.376012e+05
1.377651e+05
1.379309e+05
1.380987e+05
1.382684e+05
1.384403e+05
1.386142e+05
1.387903e+05
1.389686e+05
1.391492e+05
1.393321e+05
1.395173e+05
1.397050e+05
1.398952e+05
1.400880e+05
1.402834e+05
1.404815e+05
1.406824e+05
1.408862e+05
1.410929e+05
1.413026e+05
1.415155e+05
1.417316e+05
1.419510e+05
1.421739e+05
1.424003e+05
1.426303e+05
1.428641e+05
1.431018e+05
1.433436e+05
1.435895e+05
1.438397e+05
1.440945e+05
1.443539e+05
1.446181e+05
1.448874e+05
1.451619e+05
1.454418e+05
1.457274e+05
1.460189e+05
1.463166e+05
1.466207e+05
1.469316e+05
1.472496e+05
1.475750e+05
1.479081e+05
1.482495e+05
1.485995e+05
1.489586e+05
1.493273e+05
1.497061e+05
1.500958e+05
1.504969e+05
1.509102e+05
1.513364e+05
1.517766e+05
1.522317e+05
1.527027e+05
1.531910e+05
1.536980e+05
1.542251e+05
1.547743e+05
1.553475e+05
1.559472e+05
1.565760e+05
1.572372e+05
1.579344e+05
1.586723e+05
1.594562e+05
1.602925e+05
1.611895e+05
1.621574e+05
1.632091e+05
1.643618e+05
1.656388e+05
1.670725e+05
1.687100e+05
1.706129e+05
1.729246e+05
1.743929e+05
1.744853e+05
1.744833e+05
6.670000e+03
6.670000e+03
6.670000e+03
6.670000e+03
6.670000e+03
6.670000e+03
6.670000e+03
6.670000e+03
6.670000e+03
6.670000e+03
6.670000e+03
6.670000e+03
6.670000e+03
6.670000e+03
6.670000e+03
6.670000e+03
6.670000e+03
6.670000e+03
6.670000e+03
6.670000e+03
6.670000e+03
6.670000e+03
6.670000e+03
6.670000e+03
6.670000e+03
6.670000e+03
6.670000e+03
6.670000e+03
6.670000e+03
6.670000e+03
6.670000e+03
6.670000e+03
6.670000e+03
6.670000e+03
6.670000e+03
6.670000e+03
6.670000e+03
6.670000e+03
6.670000e+03
6.670000e+03
6.670000e+03
6.670000e+03
6.670000e+03
6.670000e+03
6.670000e+03
6.670000e+03
6.670000e+03
6.670000e+03
6.670000e+03
6.670000e+03
6.670000e+03
6.670000e+03
6.670000e+03
6.670000e+03
6.670000e+03
6.670000e+03
6.670000e+03
6.670000e+03
6.670000e+03
6.670000e+03
6.670000e+03
6.670000e+03
6.670000e+03
6.670000e+03
6.670000e+03
6.670000e+03
6.670000e+03
6.670000e+03
6.670000e+03
6.670000e+03
6.670000e+03
6.670000e+03
6.670000e+03
6.670000e+03
6.670000e+03
6.670000e+03
6.670000e+03
6.670000e+03
6.670000e+03
6.670000e+03
6.670000e+03
6.670000e+03
6.670000e+03
6.670000e+03
6.670000e+03
6.670000e+03
6.670000e+03
6.670000e+03
6.670000e+03
6.670000e+03
6.670000e+03
6.670000e+03
6.670000e+03
6.670000e+03
6.670000e+03
6.670000e+03
6.670000e+03
6.670000e+03
1.342824e+05
1.344115e+05
1.345418e+05
1.346734e+05
1.348062e+05
1.349403e+05
1.350758e+05
1.352126e+05
1.353507e+05
1.354902e+05
1.356311e+05
1.357735e+05
1.359173e+05
1.360627e+05
1.362095e+05
1.363579e+05
1.365079e+05
1.366595e+05
1.368128e+05
1.369678e+05
1.371244e+05
1.372829e+05
1.374431e+05
1.376052e+05
1.377691e+05
1.379350e+05
1.381028e+05
1.382726e+05
1.384445e+05
1.386185e+05
1.387946e+05
1.389730e+05
1.391536e+05
1.393366e+05
1.395219e+05
1.397096e+05
1.398999e+05
1.400927e+05
1.402882e+05
1.404864e+05
1.406873e+05
1.408912e+05
1.410980e+05
1.413078e+05
1.415207e+05
1.417369e+05
1.419564e+05
1.421794e+05
1.424058e+05
1.426360e+05
1.428699e+05
1.431077e+05
1.433495e+05
1.435955e+05
1.438459e+05
1.441008e+05
1.443603e+05
1.446246e+05
1.448940e+05
1.451686e+05
1.454487e+05
1.457344e+05
1.460261e+05
1.463239e+05
1.466282e+05
1.469393e+05
1.472574e+05
1.475830e+05
1.479164e+05
1.482579e+05
1.486081e+05
1.489675e+05
1.493364e+05
1.497155e+05
1.501054e+05
1.505068e+05
1.509204e+05
1.513470e+05
1.517875e+05
1.522430e+05
1.527144e+05
1.532032e+05
1.537106e+05
1.542383e+05
1.547880e+05
1.553618e+05
1.559622e+05
1.565917e+05
1.572538e+05
1.579520e+05
1.586909e+05
1.594759e+05
1.603137e+05
1.612123e+05
1.621820e+05
1.632360e+05
1.643915e+05
1.656719e+05
1.671099e+05
1.687531e+05
1.706630e+05
1.729898e+05
1.744006e+05
1.744854e+05
1.744832e+05
6.670000e+03
6.670000e+03
6.670000e+03
6.670000e+03
6.670000e+03
6.670000e+03
6.670000e+03
6.670000e+03
6.670000e+03
6.670000e+03
6.670000e+03
6.670000e+03
6.670000e+03
6.670000e+03
6.670000e+03
6.670000e+03
6.670000e+03
6.670000e+03
6.670000e+03
6.670000e+03
6.670000e+03
6.670000e+03
6.670000e+03
6.670000e+03
6.670000e+03
6.670000e+03
6.670000e+03
6.670000e+03
6.670000e+03
6.670000e+03
6.670000e+03
6.670000e+03
6.670000e+03
6.670000e+03
6.670000e+03
6.670000e+03
6.670000e+03
6.670000e+03
6.670000e+03
6.670000e+03
6.670000e+03
6.670000e+03
6.670000e+03
6.670000e+03
6.670000e+03
6.670000e+03
6.670000e+03
6.670000e+03
6.670000e+03
6.670000e+03
6.670000e+03
6.670000e+03
6.670000e+03
6.670000e+03
6.670000e+03
6.670000e+03
6.670000e+03
6.670000e+03
6.670000e+03
6.670000e+03
6.670000e+03
6.670000e+03
6.670000e+03
6.670000e+03
6.670000e+03
6.670000e+03
6.670000e+03
6.670000e+03
6.670000e+03
6.670000e+03
6.670000e+03
6.670000e+03
6.670000e+03
6.670000e+03
6.670000e+03
6.670000e+03
6.670000e+03
6.670000e+03
6.670000e+03
6.670000e+03
6.670000e+03
6.670000e+03
6.670000e+03
6.670000e+03
6.670000e+03
6.670000e+03
6.670000e+03
6.670000e+03
6.670000e+03
6.670000e+03
6.670000e+03
6.670000e+03
6.670000e+03
6.670000e+03
6.670000e+03
1.339610e+05
1.340870e+05
1.342143e+05
1.343428e+05
1.344724e+05
1.346033e+05
1.347355e+05
1.348689e+05
1.350037e+05
1.351397e+05
1.352771e+05
1.354159e+05
1.355561e+05
1.356977e+05
1.358407e+05
1.359853e+05
1.361313e+05
1.362789e+05
1.364281e+05
1.365788e+05
1.367312e+05
1.368852e+05
1.370410e+05
1.371985e+05
1.373578e+05
1.375188e+05
1.376818e+05
1.378466e+05
1.380134e+05
1.381822e+05
1.383529e+05
1.385258e+05
1.387008e+05
1.388780e+05
1.390574e+05
1.392391e+05
1.394231e+05
1.396096e+05
1.397985e+05
1.399900e+05
1.401840e+05
1.403808e+05
1.405802e+05
1.407825e+05
1.409877e+05
1.411960e+05
1.414072e+05
1.416217e+05
1.418394e+05
1.420605e+05
1.422851e+05
1.425133e+05
1.427451e+05
1.429809e+05
1.432205e+05
1.434643e+05
1.437124e+05
1.439648e+05
1.442218e+05
1.444836e+05
1.447503e+05
1.450221e+05
1.452992e+05
1.455819e+05
1.458704e+05
1.461649e+05
1.464658e+05
1.467732e+05
1.470876e+05
1.474091e+05
1.477383e+05
1.480755e+05
1.484210e+05
1.487754e+05
1.491392e+05
1.495128e+05
1.498969e+05
1.502922e+05
1.506992e+05
1.511188e+05
1.515518e+05
1.519991e+05
1.524619e+05
1.529413e+05
1.534387e+05
1.539554e+05
1.544931e+05
1.550539e+05
1.556398e+05
1.562535e+05
1.568979e+05
1.575763e+05
1.582930e+05
1.590528e+05
1.598617e+05
1.607268e+05
1.616573e+05
1.626647e+05
1.637638e+05
1.649745e+05
1.663240e+05
1.678511e+05
1.696122e+05
1.716630e+05
1.740001e+05
1.744724e+05
1.744854e+05
6.670000e+03
6.670000e+03
6.670000e+03
6.670000e+03
6.670000e+03
6.670000e+03
6.670000e+03
6.670000e+03
6.670000e+03
6.670000e+03
6.670000e+03
6.670000e+03
6.670000e+03
6.670000e+03
6.670000e+03
6.670000e+03
6.670000e+03
6.670000e+03
6.670000e+03
6.670000e+03
6.670000e+03
6.670000e+03
6.670000e+03
6.670000e+03
6.670000e+03
6.670000e+03
6.670000e+03
6.670000e+03
6.670000e+03
6.670000e+03
6.670000e+03
6.670000e+03
6.670000e+03
6.670000e+03
6.670000e+03
6.670000e+03
6.670000e+03
6.670000e+03
6.670000e+03
6.670000e+03
6.670000e+03
6.670000e+03
6.670000e+03
6.670000e+03
6.670000e+03
6.670000e+03
6.670000e+03
6.670000e+03
6.670000e+03
6.670000e+03
6.670000e+03
6.670000e+03
6.670000e+03
6.670000e+03
6.670000e+03
6.670000e+03
6.670000e+03
6.670000e+03
6.670000e+03
6.670000e+03
6.670000e+03
6.670000e+03
6.670000e+03
6.670000e+03
6.670000e+03
6.670000e+03
6.670000e+03
6.670000e+03
6.670000e+03
6.670000e+03
6.670000e+03
6.670000e+03
6.670000e+03
6.670000e+03
6.670000e+03
6.670000e+03
6.670000e+03
6.670000e+03
6.670000e+03
6.670000e+03
6.670000e+03
6.670000e+03
6.670000e+03
6.670000e+03
6.670000e+03
6.670000e+03
6.670000e+03
6.670000e+03
6.670000e+03
6.670000e+03
6.670000e+03
6.670000e+03
6.670000e+03
1.337321e+05
1.338560e+05
1.339812e+05
1.341075e+05
1.342349e+05
1.343636e+05
1.344934e+05
1.346245e+05
1.347569e+05
1.348905e+05
1.350255e+05
1.351618e+05
1.352994e+05
1.354384e+05
1.355788e+05
1.357206e+05
1.358639e+05
1.360087e+05
1.361550e+05
1.363028e+05
1.364522e+05
1.366032e+05
1.367559e+05
1.369102e+05
1.370662e+05
1.372240e+05
1.373836e+05
1.375450e+05
1.377082e+05
1.378733e+05
1.380404e+05
1.382095e+05
1.383806e+05
1.385538e+05
1.387292e+05
1.389067e+05
1.390865e+05
1.392686e+05
1.394530e+05
1.396398e+05
1.398292e+05
1.400210e+05
1.402155e+05
1.404127e+05
1.406126e+05
1.408154e+05
1.410211e+05
1.412298e+05
1.414415e+05
1.416565e+05
1.418748e+05
1.420964e+05
1.423216e+05
1.425503e+05
1.427828e+05
1.430192e+05
1.432595e+05
1.435040e+05
1.437527e+05
1.440059e+05
1.442637e+05
1.445262e+05
1.447937e+05
1.450664e+05
1.453444e+05
1.456280e+05
1.459174e+05
1.462129e+05
1.465148e+05
1.468233e+05
1.471388e+05
1.474616e+05
1.477920e+05
1.481305e+05
1.484775e+05
1.488334e+05
1.491987e+05
1.495740e+05
1.499598e+05
1.503569e+05
1.507659e+05
1.511875e+05
1.516228e+05
1.520726e+05
1.525380e+05
1.530202e+05
1.535205e+05
1.540405e+05
1.545818e+05
1.551465e+05
1.557367e+05
1.563551e+05
1.570047e+05
1.576890e+05
1.584123e+05
1.591796e+05
1.599970e+05
1.608720e+05
1.618140e+05
1.628350e+05
1.639506e+05
1.651815e+05
1.665566e+05
1.681171e+05
1.699220e+05
1.720351e+05
1.741884e+05
1.744796e+05
1.744848e+05
6.670000e+03
6.670000e+03
6.670000e+03
6.670000e+03
6.670000e+03
6.670000e+03
6.670000e+03
6.670000e+03
6.670000e+03
6.670000e+03
6.670000e+03
6.670000e+03
6.670000e+03
6.670000e+03
6.670000e+03
6.670000e+03
6.670000e+03
6.670000e+03
6.670000e+03
6.670000e+03
6.670000e+03
6.670000e+03
6.670000e+03
6.670000e+03
6.670000e+03
6.670000e+03
6.670000e+03
6.670000e+03
6.670000e+03
6.670000e+03
6.670000e+03
6.670000e+03
6.670000e+03
6.670000e+03
6.670000e+03
6.670000e+03
6.670000e+03
6.670000e+03
6.670000e+03
6.670000e+03
6.670000e+03
6.670000e+03
6.670000e+03
6.670000e+03
6.670000e+03
6.670000e+03
6.670000e+03
6.670000e+03
6.670000e+03
6.670000e+03
6.670000e+03
6.670000e+03
6.670000e+03
6.670000e+03
6.670000e+03
6.670000e+03
6.670000e+03
6.670000e+03
6.670000e+03
6.670000e+03
6.670000e+03
6.670000e+03
6.670000e+03
6.670000e+03
6.670000e+03
6.670000e+03
6.670000e+03
6.670000e+03
6.670000e+03
6.670000e+03
6.670000e+03
6.670000e+03
6.670000e+03
6.670000e+03
6.670000e+03
6.670000e+03
6.670000e+03
6.670000e+03
6.670000e+03
6.670000e+03
6.670000e+03
6.670000e+03
6.670000e+03
6.670000e+03
6.670000e+03
6.670000e+03
6.670000e+03
6.670000e+03
6.670000e+03
6.670000e+03
6.670000e+03
1.336132e+05
1.337362e+05
1.338602e+05
1.339853e+05
1.341117e+05
1.342392e+05
1.343679e+05
1.344978e+05
1.346289e+05
1.347613e+05
1.348950e+05
1.350300e+05
1.351663e+05
1.353040e+05
1.354430e+05
1.355835e+05
1.357254e+05
1.358687e+05
1.360135e+05
1.361599e+05
1.363077e+05
1.364572e+05
1.366083e+05
1.367610e+05
1.369154e+05
1.370714e+05
1.372293e+05
1.373889e+05
1.375503e+05
1.377136e+05
1.378789e+05
1.380460e+05
1.382152e+05
1.383864e+05
1.385596e+05
1.387350e+05
1.389127e+05
1.390925e+05
1.392746e+05
1.394592e+05
1.396461e+05
1.398355e+05
1.400274e+05
1.402220e+05
1.404193e+05
1.406193e+05
1.408222e+05
1.410279e+05
1.412367e+05
1.414486e+05
1.416637e+05
1.418821e+05
1.421038e+05
1.423291e+05
1.425580e+05
1.427906e+05
1.430271e+05
1.432676e+05
1.435122e+05
1.437610e+05
1.440144e+05
1.442723e+05
1.445350e+05
1.448027e+05
1.450755e+05
1.453537e+05
1.456375e+05
1.459271e+05
1.462229e+05
1.465250e+05
1.468337e+05
1.471494e+05
1.474724e+05
1.478031e+05
1.481419e+05
1.484891e+05
1.488453e+05
1.492110e+05
1.495866e+05
1.499728e+05
1.503702e+05
1.507796e+05
1.512018e+05
1.516375e+05
1.520878e+05
1.525537e+05
1.530365e+05
1.535374e+05
1.540581e+05
1.546002e+05
1.551656e+05
1.557568e+05
1.563761e+05
1.570268e+05
1.577124e+05
1.584370e+05
1.592059e+05
1.600250e+05
1.609021e+05
1.618465e+05
1.628704e+05
1.639894e+05
1.652247e+05
1.666051e+05
1.681727e+05
1.699868e+05
1.721150e+05
1.742182e+05
1.744806e+05
1.744847e+05
6.670000e+03
6.670000e+03
6.670000e+03
6.670000e+03
6.670000e+03
6.670000e+03
6.670000e+03
6.670000e+03
6.670000e+03
6.670000e+03
6.670000e+03
6.670000e+03
6.670000e+03
6.670000e+03
6.670000e+03
6.670000e+03
6.670000e+03
6.670000e+03
6.670000e+03
6.670000e+03
6.670000e+03
6.670000e+03
6.670000e+03
6.670000e+03
6.670000e+03
6.670000e+03
6.670000e+03
6.670000e+03
6.670000e+03
6.670000e+03
6.670000e+03
6.670000e+03
6.670000e+03
6.670000e+03
6.670000e+03
6.670000e+03
6.670000e+03
6.670000e+03
6.670000e+03
6.670000e+03
6.670000e+03
6.670000e+03
6.670000e+03
6.670000e+03
6.670000e+03
6.670000e+03
6.670000e+03
6.670000e+03
6.670000e+03
6.670000e+03
6.670000e+03
6.670000e+03
6.670000e+03
6.670000e+03
6.670000e+03
6.670000e+03
6.670000e+03
6.670000e+03
6.670000e+03
6.670000e+03
6.670000e+03
6.670000e+03
6.670000e+03
6.670000e+03
6.670000e+03
6.670000e+03
6.670000e+03
6.670000e+03
6.670000e+03
6.670000e+03
6.670000e+03
6.670000e+03
6.670000e+03
6.670000e+03
6.670000e+03
6.670000e+03
6.670000e+03
6.670000e+03
6.670000e+03
6.670000e+03
6.670000e+03
6.670000e+03
6.670000e+03
6.670000e+03
6.670000e+03
6.670000e+03
6.670000e+03
6.670000e+03
6.670000e+03
6.670000e+03
1.336132e+05
1.337362e+05
1.338602e+05
1.339853e+05
1.341117e+05
1.342392e+05
1.343679e+05
1.344978e+05
1.346289e+05
1.347613e+05
1.348950e+05
1.350300e+05
1.351663e+05
1.353040e+05
1.354430e+05
1.355835e+05
1.357254e+05
1.358687e+05
1.360135e+05
1.361599e+05
1.363077e+05
1.364572e+05
1.366083e+05
1.367610e+05
1.369154e+05
1.370714e+05
1.372293e+05
1.373889e+05
1.375503e+05
1.377136e+05
1.378789e+05
1.380460e+05
1.382152e+05
1.383864e+05
1.385596e+05
1.387350e+05
1.389127e+05
1.390925e+05
1.392746e+05
1.394592e+05
1.396461e+05
1.398355e+05
1.400274e+05
1.402220e+05
1.404193e+05
1.406193e+05
1.408222e+05
1.410279e+05
1.412367e+05
1.414486e+05
1.416637e+05
1.418821e+05
1.421038e+05
1.423291e+05
1.425580e+05
1.427906e+05
1.430271e+05
1.432676e+05
1.435122e+05
1.437610e+05
1.440144e+05
1.442723e+05
1.445350e+05
1.448027e+05
1.450755e+05
1.453537e+05
1.456375e+05
1.459271e+05
1.462229e+05
1.465250e+05
1.468337e+05
1.471494e+05
1.474724e+05
1.478031e+05
1.481419e+05
1.484891e+05
1.488453e+05
1.492110e+05
1.495866e+05
1.499728e+05
1.503702e+05
1.507796e+05
1.512018e+05
1.516375e+05
1.520878e+05
1.525537e+05
1.530365e+05
1.535374e+05
1.540581e+05
1.546002e+05
1.551656e+05
1.557568e+05
1.563761e+05
1.570268e+05
1.577124e+05
1.584370e+05
1.592059e+05
1.600250e+05
1.609021e+05
1.618465e+05
1.628704e+05
1.639894e+05
1.652247e+05
1.666051e+05
1.681727e+05
1.699868e+05
1.721150e+05
1.742182e+05
1.744806e+05
1.744847e+05
6.670000e+03
6.670000e+03
6.670000e+03
6.670000e+03
6.670000e+03
6.670000e+03
6.670000e+03
6.670000e+03
6.670000e+03
6.670000e+03
6.670000e+03
6.670000e+03
6.670000e+03
6.670000e+03
6.670000e+03
6.670000e+03
6.670000e+03
6.670000e+03
6.670000e+03
6.670000e+03
6.670000e+03
6.670000e+03
6.670000e+03
6.670000e+03
6.670000e+03
6.670000e+03
6.670000e+03
6.670000e+03
6.670000e+03
6.670000e+03
6.670000e+03
6.670000e+03
6.670000e+03
6.670000e+03
6.670000e+03
6.670000e+03
6.670000e+03
6.670000e+03
6.670000e+03
6.670000e+03
6.670000e+03
6.670000e+03
6.670000e+03
6.670000e+03
6.670000e+03
6.670000e+03
6.670000e+03
6.670000e+03
6.670000e+03
6.670000e+03
6.670000e+03
6.670000e+03
6.670000e+03
6.670000e+03
6.670000e+03
6.670000e+03
6.670000e+03
6.670000e+03
6.670000e+03
6.670000e+03
6.670000e+03
6.670000e+03
6.670000e+03
6.670000e+03
6.670000e+03
6.670000e+03
6.670000e+03
6.670000e+03
6.670000e+03
6.670000e+03
6.670000e+03
6.670000e+03
6.670000e+03
6.670000e+03
6.670000e+03
6.670000e+03
6.670000e+03
6.670000e+03
6.670000e+03
6.670000e+03
6.670000e+03
6.670000e+03
6.670000e+03
6.670000e+03
6.670000e+03
6.670000e+03
6.670000e+03
6.670000e+03
6.670000e+03
6.670000e+03
1.337321e+05
1.338560e+05
1.339812e+05
1.341075e+05
1.342349e+05
1.343636e+05
1.344934e+05
1.346245e+05
1.347569e+05
1.348905e+05
1.350255e+05
1.351618e+05
1.352994e+05
1.354384e+05
1.355788e+05
1.357206e+05
1.358639e+05
1.360087e+05
1.361550e+05
1.363028e+05
1.364522e+05
1.366032e+05
1.367559e+05
1.369102e+05
1.370662e+05
1.372240e+05
1.373836e+05
1.375450e+05
1.377082e+05
1.378733e+05
1.380404e+05
1.382095e+05
1.383806e+05
1.385538e+05
1.387292e+05
1.389067e+05
1.390865e+05
1.392686e+05
1.394530e+05
1.396398e+05
1.398292e+05
1.400210e+05
1.402155e+05
1.404127e+05
1.406126e+05
1.408154e+05
1.410211e+05
1.412298e+05
1.414415e+05
1.416565e+05
1.418748e+05
1.420964e+05
1.423216e+05
1.425503e+05
1.427828e+05
1.430192e+05
1.432595e+05
1.435040e+05
1.437527e+05
1.440059e+05
1.442637e+05
1.445262e+05
1.447937e+05
1.450664e+05
1.453444e+05
1.456280e+05
1.459174e+05
1.462129e+05
1.465148e+05
1.468233e+05
1.471388e+05
1.474616e+05
1.477920e+05
1.481305e+05
1.484775e+05
1.488334e+05
1.491987e+05
1.495740e+05
1.499598e+05
1.503569e+05
1.507659e+05
1.511875e+05
1.516228e+05
1.520726e+05
1.525380e+05
1.530202e+05
1.535205e+05
1.540405e+05
1.545818e+05
1.551465e+05
1.557367e+05
1.563551e+05
1.570047e+05
1.576890e+05
1.584123e+05
1.591796e+05
1.599970e+05
1.608720e+05
1.618140e+05
1.628350e+05
1.639506e+05
1.651815e+05
1.665566e+05
1.681171e+05
1.699220e+05
1.720351e+05
1.741884e+05
1.744796e+05
1.744848e+05
6.670000e+03
6.670000e+03
6.670000e+03
6.670000e+03
6.670000e+03
6.670000e+03
6.670000e+03
6.670000e+03
6.670000e+03
6.670000e+03
6.670000e+03
6.670000e+03
6.670000e+03
6.670000e+03
6.670000e+03
6.670000e+03
6.670000e+03
6.670000e+03
6.670000e+03
6.670000e+03
6.670000e+03
6.670000e+03
6.670000e+03
6.670000e+03
6.670000e+03
6.670000e+03
6.670000e+03
6.670000e+03
6.670000e+03
6.670000e+03
6.670000e+03
6.670000e+03
6.670000e+03
6.670000e+03
6.670000e+03
6.670000e+03
6.670000e+03
6.670000e+03
6.670000e+03
6.670000e+03
6.670000e+03
6.670000e+03
6.670000e+03
6.670000e+03
6.670000e+03
6.670000e+03
6.670000e+03
6.670000e+03
6.670000e+03
6.670000e+03
6.670000e+03
6.670000e+03
6.670000e+03
6.670000e+03
6.670000e+03
6.670000e+03
6.670000e+03
6.670000e+03
6.670000e+03
6.670000e+03
6.670000e+03
6.670000e+03
6.670000e+03
6.670000e+03
6.670000e+03
6.670000e+03
6.670000e+03
6.670000e+03
6.670000e+03
6.670000e+03
6.670000e+03
6.670000e+03
6.670000e+03
6.670000e+03
6.670000e+03
6.670000e+03
6.670000e+03
6.670000e+03
6.670000e+03
6.670000e+03
6.670000e+03
6.670000e+03
6.670000e+03
6.670000e+03
6.670000e+03
6.670000e+03
6.670000e+03
6.670000e+03
6.670000e+03
6.670000e+03
6.670000e+03
1.339610e+05
1.340870e+05
1.342143e+05
1.343428e+05
1.344724e+05
1.346033e+05
1.347355e+05
1.348689e+05
1.350037e+05
1.351397e+05
1.352771e+05
1.354159e+05
1.355561e+05
1.356977e+05
1.358407e+05
1.359853e+05
1.361313e+05
1.362789e+05
1.364281e+05
1.365788e+05
1.367312e+05
1.368852e+05
1.370410e+05
1.371985e+05
1.373578e+05
1.375188e+05
1.376818e+05
1.378466e+05
1.380134e+05
1.381822e+05
1.383529e+05
1.385258e+05
1.387008e+05
1.388780e+05
1.390574e+05
1.392391e+05
1.394231e+05
1.396096e+05
1.397985e+05
1.399900e+05
1.401840e+05
1.403808e+05
1.405802e+05
1.407825e+05
1.409877e+05
1.411960e+05
1.414072e+05
1.416217e+05
1.418394e+05
1.420605e+05
1.422851e+05
1.425133e+05
1.427451e+05
1.429809e+05
1.432205e+05
1.434643e+05
1.437124e+05
1.439648e+05
1.442218e+05
1.444836e+05
1.447503e+05
1.450221e+05
1.452992e+05
1.455819e+05
1.458704e+05
1.461649e+05
1.464658e+05
1.467732e+05
1.470876e+05
1.474091e+05
1.477383e+05
1.480755e+05
1.484210e+05
1.487754e+05
1.491392e+05
1.495128e+05
1.498969e+05
1.502922e+05
1.506992e+05
1.511188e+05
1.515518e+05
1.519991e+05
1.524619e+05
1.529413e+05
1.534387e+05
1.539554e+05
1.544931e+05
1.550539e+05
1.556398e+05
1.562535e+05
1.568979e+05
1.575763e+05
1.582930e+05
1.590528e+05
1.598617e+05
1.607268e+05
1.616573e+05
1.626647e+05
1.637638e+05
1.649745e+05
1.663240e+05
1.678511e+05
1.696122e+05
1.716630e+05
1.740001e+05
1.744724e+05
1.744854e+05
6.670000e+03
6.670000e+03
6.670000e+03
6.670000e+03
6.670000e+03
6.670000e+03
6.670000e+03
6.670000e+03
6.670000e+03
6.670000e+03
6.670000e+03
6.670000e+03
6.670000e+03
6.670000e+03
6.670000e+03
6.670000e+03
6.670000e+03
6.670000e+03
6.670000e+03
6.670000e+03
6.670000e+03
6.670000e+03
6.670000e+03
6.670000e+03
6.670000e+03
6.670000e+03
6.670000e+03
6.670000e+03
6.670000e+03
6.670000e+03
6.670000e+03
6.670000e+03
6.670000e+03
6.670000e+03
6.670000e+03
6.670000e+03
6.670000e+03
6.670000e+03
6.670000e+03
6.670000e+03
6.670000e+03
6.670000e+03
6.670000e+03
6.670000e+03
6.670000e+03
6.670000e+03
6.670000e+03
6.670000e+03
6.670000e+03
6.670000e+03
6.670000e+03
6.670000e+03
6.670000e+03
6.670000e+03
6.670000e+03
6.670000e+03
6.670000e+03
6.670000e+03
6.670000e+03
6.670000e+03
6.670000e+03
6.670000e+03
6.670000e+03
6.670000e+03
6.670000e+03
6.670000e+03
6.670000e+03
6.670000e+03
6.670000e+03
6.670000e+03
6.670000e+03
6.670000e+03
6.670000e+03
6.670000e+03
6.670000e+03
6.670000e+03
6.670000e+03
6.670000e+03
6.670000e+03
6.670000e+03
6.670000e+03
6.670000e+03
6.670000e+03
6.670000e+03
6.670000e+03
6.670000e+03
6.670000e+03
6.670000e+03
6.670000e+03
6.670000e+03
6.670000e+03
6.670000e+03
6.670000e+03
1.342824e+05
1.344115e+05
1.345418e+05
1.346734e+05
1.348062e+05
1.349403e+05
1.350758e+05
1.352126e+05
1.353507e+05
1.354902e+05
1.356311e+05
1.357735e+05
1.359173e+05
1.360627e+05
1.362095e+05
1.363579e+05
1.365079e+05
1.366595e+05
1.368128e+05
1.369678e+05
1.371244e+05
1.372829e+05
1.374431e+05
1.376052e+05
1.377691e+05
1.379350e+05
1.381028e+05
1.382726e+05
1.384445e+05
1.386185e+05
1.387946e+05
1.389730e+05
1.391536e+05
1.393366e+05
1.395219e+05
1.397096e+05
1.398999e+05
1.400927e+05
1.402882e+05
1.404864e+05
1.406873e+05
1.408912e+05
1.410980e+05
1.413078e+05
1.415207e+05
1.417369e+05
1.419564e+05
1.421794e+05
1.424058e+05
1.426360e+05
1.428699e+05
1.431077e+05
1.433495e+05
1.435955e+05
1.438459e+05
1.441008e+05
1.443603e+05
1.446246e+05
1.448940e+05
1.451686e+05
1.454487e+05
1.457344e+05
1.460261e+05
1.463239e+05
1.466282e+05
1.469393e+05
1.472574e+05
1.475830e+05
1.479164e+05
1.482579e+05
1.486081e+05
1.489675e+05
1.493364e+05
1.497155e+05
1.501054e+05
1.505068e+05
1.509204e+05
1.513470e+05
1.517875e+05
1.522430e+05
1.527144e+05
1.532032e+05
1.537106e+05
1.542383e+05
1.547880e+05
1.553618e+05
1.559622e+05
1.565917e+05
1.572538e+05
1.579520e+05
1.586909e+05
1.594759e+05
1.603137e+05
1.612123e+05
1.621820e+05
1.632360e+05
1.643915e+05
1.656719e+05
1.671099e+05
1.687531e+05
1.706630e+05
1.729898e+05
1.744006e+05
1.744854e+05
1.744832e+05
6.670000e+03
6.670000e+03
6.670000e+03
6.670000e+03
6.670000e+03
6.670000e+03
6.670000e+03
6.670000e+03
6.670000e+03
6.670000e+03
6.670000e+03
6.670000e+03
6.670000e+03
6.670000e+03
6.670000e+03
6.670000e+03
6.670000e+03
6.670000e+03
6.670000e+03
6.670000e+03
6.670000e+03
6.670000e+03
6.670000e+03
6.670000e+03
6.670000e+03
6.670000e+03
6.670000e+03
6.670000e+03
6.670000e+03
6.670000e+03
6.670000e+03
6.670000e+03
6.670000e+03
6.670000e+03
6.670000e+03
6.670000e+03
6.670000e+03
6.670000e+03
6.670000e+03
6.670000e+03
6.670000e+03
6.670000e+03
6.670000e+03
6.670000e+03
6.670000e+03
6.670000e+03
6.670000e+03
6.670000e+03
6.670000e+03
6.670000e+03
6.670000e+03
6.670000e+03
6.670000e+03
6.670000e+03
6.670000e+03
6.670000e+03
6.670000e+03
6.670000e+03
6.670000e+03
6.670000e+03
6.670000e+03
6.670000e+03
6.670000e+03
6.670000e+03
6.670000e+03
6.670000e+03
6.670000e+03
6.670000e+03
6.670000e+03
6.670000e+03
6.670000e+03
6.670000e+03
6.670000e+03
6.670000e+03
6.670000e+03
6.670000e+03
6.670000e+03
6.670000e+03
6.670000e+03
6.670000e+03
6.670000e+03
6.670000e+03
6.670000e+03
6.670000e+03
6.670000e+03
6.670000e+03
6.670000e+03
6.670000e+03
6.670000e+03
6.670000e+03
6.670000e+03
6.670000e+03
6.670000e+03
6.670000e+03
6.670000e+03
1.346702e+05
1.348030e+05
1.349371e+05
1.350725e+05
1.352092e+05
1.353473e+05
1.354868e+05
1.356277e+05
1.357700e+05
1.359138e+05
1.360591e+05
1.362059e+05
1.363543e+05
1.365042e+05
1.366558e+05
1.368090e+05
1.369639e+05
1.371206e+05
1.372790e+05
1.374392e+05
1.376012e+05
1.377651e+05
1.379309e+05
1.380987e+05
1.382684e+05
1.384403e+05
1.386142e+05
1.387903e+05
1.389686e+05
1.391492e+05
1.393321e+05
1.395173e+05
1.397050e+05
1.398952e+05
1.400880e+05
1.402834e+05
1.404815e+05
1.406824e+05
1.408862e+05
1.410929e+05
1.413026e+05
1.415155e+05
1.417316e+05
1.419510e+05
1.421739e+05
1.424003e+05
1.426303e+05
1.428641e+05
1.431018e+05
1.433436e+05
1.435895e+05
1.438397e+05
1.440945e+05
1.443539e+05
1.446181e+05
1.448874e+05
1.451619e+05
1.454418e+05
1.457274e+05
1.460189e+05
1.463166e+05
1.466207e+05
1.469316e+05
1.472496e+05
1.475750e+05
1.479081e+05
1.482495e+05
1.485995e+05
1.489586e+05
1.493273e+05
1.497061e+05
1.500958e+05
1.504969e+05
1.509102e+05
1.513364e+05
1.517766e+05
1.522317e+05
1.527027e+05
1.531910e+05
1.536980e+05
1.542251e+05
1.547743e+05
1.553475e+05
1.559472e+05
1.565760e+05
1.572372e+05
1.579344e+05
1.586723e+05
1.594562e+05
1.602925e+05
1.611895e+05
1.621574e+05
1.632091e+05
1.643618e+05
1.656388e+05
1.670725e+05
1.687100e+05
1.706129e+05
1.729246e+05
1.743929e+05
1.744853e+05
1.744833e+05
6.670000e+03
6.670000e+03
6.670000e+03
6.670000e+03
6.670000e+03
6.670000e+03
6.670000e+03
6.670000e+03
6.670000e+03
6.670000e+03
6.670000e+03
6.670000e+03
6.670000e+03
6.670000e+03
6.670000e+03
6.670000e+03
6.670000e+03
6.670000e+03
6.670000e+03
6.670000e+03
6.670000e+03
6.670000e+03
6.670000e+03
6.670000e+03
6.670000e+03
6.670000e+03
6.670000e+03
6.670000e+03
6.670000e+03
6.670000e+03
6.670000e+03
6.670000e+03
6.670000e+03
6.670000e+03
6.670000e+03
6.670000e+03
6.670000e+03
6.670000e+03
6.670000e+03
6.670000e+03
6.670000e+03
6.670000e+03
6.670000e+03
6.670000e+03
6.670000e+03
6.670000e+03
6.670000e+03
6.670000e+03
6.670000e+03
6.670000e+03
6.670000e+03
6.670000e+03
6.670000e+03
6.670000e+03
6.670000e+03
6.670000e+03
6.670000e+03
6.670000e+03
6.670000e+03
6.670000e+03
6.670000e+03
6.670000e+03
6.670000e+03
6.670000e+03
6.670000e+03
6.670000e+03
6.670000e+03
6.670000e+03
6.670000e+03
6.670000e+03
6.670000e+03
6.670000e+03
6.670000e+03
6.670000e+03
6.670000e+03
6.670000e+03
6.670000e+03
6.670000e+03
6.670000e+03
6.670000e+03
6.670000e+03
6.670000e+03
6.670000e+03
6.670000e+03
6.670000e+03
6.670000e+03
6.670000e+03
6.670000e+03
6.670000e+03
6.670000e+03
6.670000e+03
6.670000e+03
6.670000e+03
6.670000e+03
6.670000e+03
6.670000e+03
6.670000e+03
6.670000e+03
1.350900e+05
1.352269e+05
1.353652e+05
1.355048e+05
1.356459e+05
1.357884e+05
1.359324e+05
1.360779e+05
1.362249e+05
1.363735e+05
1.365237e+05
1.366754e+05
1.368289e+05
1.369840e+05
1.371409e+05
1.372995e+05
1.374599e+05
1.376222e+05
1.377863e+05
1.379524e+05
1.381204e+05
1.382904e+05
1.384625e+05
1.386368e+05
1.388131e+05
1.389917e+05
1.391726e+05
1.393558e+05
1.395413e+05
1.397293e+05
1.399199e+05
1.401130e+05
1.403087e+05
1.405072e+05
1.407084e+05
1.409126e+05
1.411197e+05
1.413298e+05
1.415431e+05
1.417597e+05
1.419795e+05
1.422028e+05
1.424296e+05
1.426602e+05
1.428945e+05
1.431327e+05
1.433750e+05
1.436214e+05
1.438723e+05
1.441276e+05
1.443876e+05
1.446525e+05
1.449224e+05
1.451976e+05
1.454782e+05
1.457646e+05
1.460569e+05
1.463554e+05
1.466603e+05
1.469721e+05
1.472910e+05
1.476174e+05
1.479516e+05
1.482940e+05
1.486452e+05
1.490055e+05
1.493754e+05
1.497557e+05
1.501467e+05
1.505494e+05
1.509643e+05
1.513923e+05
1.518343e+05
1.522914e+05
1.527646e+05
1.532552e+05
1.537646e+05
1.542945e+05
1.548467e+05
1.554231e+05
1.560264e+05
1.566592e+05
1.573248e+05
1.580270e+05
1.587705e+05
1.595607e+05
1.604044e+05
1.613099e+05
1.622877e+05
1.633513e+05
1.645186e+05
1.658137e+05
1.672706e+05
1.689388e+05
1.708788e+05
1.732623e+05
1.744276e+05
1.744858e+05
6.670000e+03
6.670000e+03
6.670000e+03
6.670000e+03
6.670000e+03
6.670000e+03
6.670000e+03
6.670000e+03
6.670000e+03
6.670000e+03
6.670000e+03
6.670000e+03
6.670000e+03
6.670000e+03
6.670000e+03
6.670000e+03
6.670000e+03
6.670000e+03
6.670000e+03
6.670000e+03
6.670000e+03
6.670000e+03
6.670000e+03
6.670000e+03
6.670000e+03
6.670000e+03
6.670000e+03
6.670000e+03
6.670000e+03
6.670000e+03
6.670000e+03
6.670000e+03
6.670000e+03
6.670000e+03
6.670000e+03
6.670000e+03
6.670000e+03
6.670000e+03
6.670000e+03
6.670000e+03
6.670000e+03
6.670000e+03
6.670000e+03
6.670000e+03
6.670000e+03
6.670000e+03
6.670000e+03
6.670000e+03
6.670000e+03
6.670000e+03
6.670000e+03
6.670000e+03
6.670000e+03
6.670000e+03
6.670000e+03
6.670000e+03
6.670000e+03
6.670000e+03
6.670000e+03
6.670000e+03
6.670000e+03
6.670000e+03
6.670000e+03
6.670000e+03
6.670000e+03
6.670000e+03
6.670000e+03
6.670000e+03
6.670000e+03
6.670000e+03
6.670000e+03
6.670000e+03
6.670000e+03
6.670000e+03
6.670000e+03
6.670000e+03
6.670000e+03
6.670000e+03
6.670000e+03
6.670000e+03
6.670000e+03
6.670000e+03
6.670000e+03
6.670000e+03
6.670000e+03
6.670000e+03
6.670000e+03
6.670000e+03
6.670000e+03
6.670000e+03
6.670000e+03
6.670000e+03
6.670000e+03
6.670000e+03
6.670000e+03
6.670000e+03
6.670000e+03
6.670000e+03
6.670000e+03
6.670000e+03
6.670000e+03
6.670000e+03
1.355014e+05
1.356424e+05
1.357849e+05
1.359289e+05
1.360743e+05
1.362213e+05
1.363698e+05
1.365200e+05
1.366717e+05
1.368251e+05
1.369802e+05
1.371370e+05
1.372956e+05
1.374560e+05
1.376182e+05
1.377823e+05
1.379483e+05
1.381163e+05
1.382863e+05
1.384583e+05
1.386325e+05
1.388088e+05
1.389873e+05
1.391681e+05
1.393513e+05
1.395368e+05
1.397247e+05
1.399152e+05
1.401082e+05
1.403039e+05
1.405023e+05
1.407035e+05
1.409076e+05
1.411146e+05
1.413247e+05
1.415379e+05
1.417543e+05
1.419741e+05
1.421973e+05
1.424241e+05
1.426545e+05
1.428887e+05
1.431268e+05
1.433690e+05
1.436154e+05
1.438661e+05
1.441213e+05
1.443812e+05
1.446459e+05
1.449157e+05
1.451908e+05
1.454713e+05
1.457575e+05
1.460496e+05
1.463480e+05
1.466528e+05
1.469644e+05
1.472831e+05
1.476093e+05
1.479433e+05
1.482856e+05
1.486365e+05
1.489965e+05
1.493663e+05
1.497462e+05
1.501370e+05
1.505394e+05
1.509540e+05
1.513817e+05
1.518233e+05
1.522800e+05
1.527528e+05
1.532430e+05
1.537519e+05
1.542813e+05
1.548329e+05
1.554087e+05
1.560113e+05
1.566433e+05
1.573081e+05
1.580094e+05
1.587518e+05
1.595408e+05
1.603830e+05
1.612869e+05
1.622628e+05
1.633242e+05
1.644887e+05