
    FoamFile
    {
        version     2.0;
        format      ascii;
        class       volScalarField;
        location    "0";
        object     T;
    }

dimensions      [0 0 0 1 0 0 0];

    internalField   nonuniform List<scalar>
    8000
(
2.679241e+03
2.677749e+03
2.676235e+03
2.674696e+03
2.673135e+03
2.671548e+03
2.669937e+03
2.668301e+03
2.666638e+03
2.664949e+03
2.663232e+03
2.661488e+03
2.659715e+03
2.657913e+03
2.656081e+03
2.654218e+03
2.652324e+03
2.650398e+03
2.648438e+03
2.646445e+03
2.644416e+03
2.642352e+03
2.640252e+03
2.638114e+03
2.635937e+03
2.633720e+03
2.631463e+03
2.629164e+03
2.626821e+03
2.624434e+03
2.622001e+03
2.619522e+03
2.616993e+03
2.614415e+03
2.611786e+03
2.609103e+03
2.606365e+03
2.603571e+03
2.600719e+03
2.597806e+03
2.594831e+03
2.591791e+03
2.588685e+03
2.585509e+03
2.582262e+03
2.578941e+03
2.575543e+03
2.572065e+03
2.568504e+03
2.564857e+03
2.561120e+03
2.557291e+03
2.553364e+03
2.549336e+03
2.545202e+03
2.540959e+03
2.536600e+03
2.532121e+03
2.527516e+03
2.522779e+03
2.517903e+03
2.512883e+03
2.507709e+03
2.502374e+03
2.496870e+03
2.491187e+03
2.485315e+03
2.479242e+03
2.472957e+03
2.466447e+03
2.459698e+03
2.452692e+03
2.445414e+03
2.437844e+03
2.429960e+03
2.421740e+03
2.413157e+03
2.404181e+03
2.394780e+03
2.384915e+03
2.374545e+03
2.363621e+03
2.352087e+03
2.339878e+03
2.326920e+03
2.313123e+03
2.298384e+03
2.282575e+03
2.265547e+03
2.247111e+03
2.227035e+03
2.205025e+03
2.180700e+03
2.153554e+03
2.122899e+03
2.087761e+03
2.046704e+03
1.997786e+03
1.938363e+03
1.902149e+03
1.899877e+03
1.899925e+03
2.980000e+02
2.980000e+02
2.980000e+02
2.980000e+02
2.980000e+02
2.980000e+02
2.980000e+02
2.980000e+02
2.980000e+02
2.980000e+02
2.980000e+02
2.980000e+02
2.980000e+02
2.980000e+02
2.980000e+02
2.980000e+02
2.980000e+02
2.980000e+02
2.980000e+02
2.980000e+02
2.980000e+02
2.980000e+02
2.980000e+02
2.980000e+02
2.980000e+02
2.980000e+02
2.980000e+02
2.980000e+02
2.980000e+02
2.980000e+02
2.980000e+02
2.980000e+02
2.980000e+02
2.980000e+02
2.980000e+02
2.980000e+02
2.980000e+02
2.980000e+02
2.980000e+02
2.980000e+02
2.980000e+02
2.980000e+02
2.980000e+02
2.980000e+02
2.980000e+02
2.980000e+02
2.980000e+02
2.980000e+02
2.980000e+02
2.980000e+02
2.980000e+02
2.980000e+02
2.980000e+02
2.980000e+02
2.980000e+02
2.980000e+02
2.980000e+02
2.980000e+02
2.980000e+02
2.980000e+02
2.980000e+02
2.980000e+02
2.980000e+02
2.980000e+02
2.980000e+02
2.980000e+02
2.980000e+02
2.980000e+02
2.980000e+02
2.980000e+02
2.980000e+02
2.980000e+02
2.980000e+02
2.980000e+02
2.980000e+02
2.980000e+02
2.980000e+02
2.980000e+02
2.980000e+02
2.980000e+02
2.980000e+02
2.980000e+02
2.980000e+02
2.980000e+02
2.980000e+02
2.980000e+02
2.980000e+02
2.980000e+02
2.980000e+02
2.980000e+02
2.980000e+02
2.980000e+02
2.980000e+02
2.980000e+02
2.980000e+02
2.980000e+02
2.980000e+02
2.980000e+02
2.683551e+03
2.682124e+03
2.680675e+03
2.679205e+03
2.677713e+03
2.676197e+03
2.674659e+03
2.673096e+03
2.671509e+03
2.669898e+03
2.668260e+03
2.666597e+03
2.664907e+03
2.663190e+03
2.661445e+03
2.659672e+03
2.657869e+03
2.656036e+03
2.654172e+03
2.652277e+03
2.650350e+03
2.648390e+03
2.646396e+03
2.644366e+03
2.642302e+03
2.640200e+03
2.638061e+03
2.635883e+03
2.633666e+03
2.631407e+03
2.629107e+03
2.626763e+03
2.624375e+03
2.621941e+03
2.619460e+03
2.616931e+03
2.614352e+03
2.611721e+03
2.609037e+03
2.606298e+03
2.603502e+03
2.600648e+03
2.597734e+03
2.594757e+03
2.591716e+03
2.588608e+03
2.585431e+03
2.582182e+03
2.578859e+03
2.575459e+03
2.571979e+03
2.568416e+03
2.564767e+03
2.561028e+03
2.557196e+03
2.553266e+03
2.549236e+03
2.545100e+03
2.540853e+03
2.536492e+03
2.532010e+03
2.527402e+03
2.522661e+03
2.517782e+03
2.512758e+03
2.507580e+03
2.502242e+03
2.496733e+03
2.491046e+03
2.485169e+03
2.479091e+03
2.472801e+03
2.466285e+03
2.459529e+03
2.452518e+03
2.445233e+03
2.437655e+03
2.429764e+03
2.421535e+03
2.412942e+03
2.403957e+03
2.394544e+03
2.384668e+03
2.374285e+03
2.363347e+03
2.351797e+03
2.339571e+03
2.326593e+03
2.312775e+03
2.298011e+03
2.282174e+03
2.265114e+03
2.246641e+03
2.226521e+03
2.204460e+03
2.180072e+03
2.152850e+03
2.122099e+03
2.086835e+03
2.045611e+03
1.996481e+03
1.936739e+03
1.901958e+03
1.899874e+03
1.899927e+03
2.980000e+02
2.980000e+02
2.980000e+02
2.980000e+02
2.980000e+02
2.980000e+02
2.980000e+02
2.980000e+02
2.980000e+02
2.980000e+02
2.980000e+02
2.980000e+02
2.980000e+02
2.980000e+02
2.980000e+02
2.980000e+02
2.980000e+02
2.980000e+02
2.980000e+02
2.980000e+02
2.980000e+02
2.980000e+02
2.980000e+02
2.980000e+02
2.980000e+02
2.980000e+02
2.980000e+02
2.980000e+02
2.980000e+02
2.980000e+02
2.980000e+02
2.980000e+02
2.980000e+02
2.980000e+02
2.980000e+02
2.980000e+02
2.980000e+02
2.980000e+02
2.980000e+02
2.980000e+02
2.980000e+02
2.980000e+02
2.980000e+02
2.980000e+02
2.980000e+02
2.980000e+02
2.980000e+02
2.980000e+02
2.980000e+02
2.980000e+02
2.980000e+02
2.980000e+02
2.980000e+02
2.980000e+02
2.980000e+02
2.980000e+02
2.980000e+02
2.980000e+02
2.980000e+02
2.980000e+02
2.980000e+02
2.980000e+02
2.980000e+02
2.980000e+02
2.980000e+02
2.980000e+02
2.980000e+02
2.980000e+02
2.980000e+02
2.980000e+02
2.980000e+02
2.980000e+02
2.980000e+02
2.980000e+02
2.980000e+02
2.980000e+02
2.980000e+02
2.980000e+02
2.980000e+02
2.980000e+02
2.980000e+02
2.980000e+02
2.980000e+02
2.980000e+02
2.980000e+02
2.980000e+02
2.980000e+02
2.980000e+02
2.980000e+02
2.980000e+02
2.980000e+02
2.980000e+02
2.980000e+02
2.980000e+02
2.980000e+02
2.687071e+03
2.685696e+03
2.684300e+03
2.682885e+03
2.681448e+03
2.679989e+03
2.678508e+03
2.677005e+03
2.675479e+03
2.673929e+03
2.672355e+03
2.670757e+03
2.669133e+03
2.667484e+03
2.665808e+03
2.664106e+03
2.662376e+03
2.660617e+03
2.658830e+03
2.657013e+03
2.655166e+03
2.653288e+03
2.651378e+03
2.649435e+03
2.647459e+03
2.645449e+03
2.643403e+03
2.641321e+03
2.639202e+03
2.637045e+03
2.634848e+03
2.632612e+03
2.630334e+03
2.628013e+03
2.625649e+03
2.623240e+03
2.620784e+03
2.618281e+03
2.615728e+03
2.613125e+03
2.610469e+03
2.607760e+03
2.604994e+03
2.602172e+03
2.599290e+03
2.596346e+03
2.593340e+03
2.590267e+03
2.587127e+03
2.583917e+03
2.580633e+03
2.577275e+03
2.573837e+03
2.570319e+03
2.566716e+03
2.563025e+03
2.559243e+03
2.555366e+03
2.551390e+03
2.547310e+03
2.543123e+03
2.538823e+03
2.534406e+03
2.529865e+03
2.525196e+03
2.520392e+03
2.515445e+03
2.510350e+03
2.505098e+03
2.499681e+03
2.494090e+03
2.488315e+03
2.482345e+03
2.476169e+03
2.469775e+03
2.463149e+03
2.456275e+03
2.449137e+03
2.441718e+03
2.433996e+03
2.425949e+03
2.417553e+03
2.408780e+03
2.399599e+03
2.389974e+03
2.379866e+03
2.369229e+03
2.358012e+03
2.346153e+03
2.333585e+03
2.320225e+03
2.305978e+03
2.290728e+03
2.274339e+03
2.256642e+03
2.237429e+03
2.216441e+03
2.193343e+03
2.167699e+03
2.138924e+03
2.106203e+03
2.068362e+03
2.023668e+03
1.970418e+03
1.911809e+03
1.900192e+03
1.899875e+03
2.980000e+02
2.980000e+02
2.980000e+02
2.980000e+02
2.980000e+02
2.980000e+02
2.980000e+02
2.980000e+02
2.980000e+02
2.980000e+02
2.980000e+02
2.980000e+02
2.980000e+02
2.980000e+02
2.980000e+02
2.980000e+02
2.980000e+02
2.980000e+02
2.980000e+02
2.980000e+02
2.980000e+02
2.980000e+02
2.980000e+02
2.980000e+02
2.980000e+02
2.980000e+02
2.980000e+02
2.980000e+02
2.980000e+02
2.980000e+02
2.980000e+02
2.980000e+02
2.980000e+02
2.980000e+02
2.980000e+02
2.980000e+02
2.980000e+02
2.980000e+02
2.980000e+02
2.980000e+02
2.980000e+02
2.980000e+02
2.980000e+02
2.980000e+02
2.980000e+02
2.980000e+02
2.980000e+02
2.980000e+02
2.980000e+02
2.980000e+02
2.980000e+02
2.980000e+02
2.980000e+02
2.980000e+02
2.980000e+02
2.980000e+02
2.980000e+02
2.980000e+02
2.980000e+02
2.980000e+02
2.980000e+02
2.980000e+02
2.980000e+02
2.980000e+02
2.980000e+02
2.980000e+02
2.980000e+02
2.980000e+02
2.980000e+02
2.980000e+02
2.980000e+02
2.980000e+02
2.980000e+02
2.980000e+02
2.980000e+02
2.980000e+02
2.980000e+02
2.980000e+02
2.980000e+02
2.980000e+02
2.980000e+02
2.980000e+02
2.980000e+02
2.980000e+02
2.980000e+02
2.980000e+02
2.980000e+02
2.980000e+02
2.980000e+02
2.980000e+02
2.980000e+02
2.980000e+02
2.980000e+02
2.689547e+03
2.688209e+03
2.686851e+03
2.685472e+03
2.684074e+03
2.682655e+03
2.681214e+03
2.679752e+03
2.678268e+03
2.676761e+03
2.675231e+03
2.673677e+03
2.672099e+03
2.670497e+03
2.668869e+03
2.667216e+03
2.665536e+03
2.663829e+03
2.662094e+03
2.660331e+03
2.658540e+03
2.656718e+03
2.654866e+03
2.652983e+03
2.651067e+03
2.649119e+03
2.647138e+03
2.645122e+03
2.643070e+03
2.640982e+03
2.638857e+03
2.636694e+03
2.634491e+03
2.632248e+03
2.629963e+03
2.627636e+03
2.625264e+03
2.622848e+03
2.620384e+03
2.617873e+03
2.615312e+03
2.612701e+03
2.610037e+03
2.607318e+03
2.604544e+03
2.601712e+03
2.598820e+03
2.595867e+03
2.592849e+03
2.589766e+03
2.586615e+03
2.583393e+03
2.580098e+03
2.576727e+03
2.573276e+03
2.569745e+03
2.566128e+03
2.562422e+03
2.558625e+03
2.554732e+03
2.550740e+03
2.546643e+03
2.542438e+03
2.538120e+03
2.533683e+03
2.529122e+03
2.524432e+03
2.519605e+03
2.514635e+03
2.509515e+03
2.504237e+03
2.498793e+03
2.493173e+03
2.487367e+03
2.481365e+03
2.475155e+03
2.468724e+03
2.462059e+03
2.455144e+03
2.447962e+03
2.440495e+03
2.432723e+03
2.424622e+03
2.416167e+03
2.407331e+03
2.398080e+03
2.388381e+03
2.378190e+03
2.367464e+03
2.356147e+03
2.344180e+03
2.331490e+03
2.317994e+03
2.303593e+03
2.288170e+03
2.271583e+03
2.253657e+03
2.234178e+03
2.212875e+03
2.189400e+03
2.163296e+03
2.133948e+03
2.100494e+03
2.061683e+03
2.015691e+03
1.960812e+03
1.907176e+03
1.900016e+03
1.899889e+03
2.980000e+02
2.980000e+02
2.980000e+02
2.980000e+02
2.980000e+02
2.980000e+02
2.980000e+02
2.980000e+02
2.980000e+02
2.980000e+02
2.980000e+02
2.980000e+02
2.980000e+02
2.980000e+02
2.980000e+02
2.980000e+02
2.980000e+02
2.980000e+02
2.980000e+02
2.980000e+02
2.980000e+02
2.980000e+02
2.980000e+02
2.980000e+02
2.980000e+02
2.980000e+02
2.980000e+02
2.980000e+02
2.980000e+02
2.980000e+02
2.980000e+02
2.980000e+02
2.980000e+02
2.980000e+02
2.980000e+02
2.980000e+02
2.980000e+02
2.980000e+02
2.980000e+02
2.980000e+02
2.980000e+02
2.980000e+02
2.980000e+02
2.980000e+02
2.980000e+02
2.980000e+02
2.980000e+02
2.980000e+02
2.980000e+02
2.980000e+02
2.980000e+02
2.980000e+02
2.980000e+02
2.980000e+02
2.980000e+02
2.980000e+02
2.980000e+02
2.980000e+02
2.980000e+02
2.980000e+02
2.980000e+02
2.980000e+02
2.980000e+02
2.980000e+02
2.980000e+02
2.980000e+02
2.980000e+02
2.980000e+02
2.980000e+02
2.980000e+02
2.980000e+02
2.980000e+02
2.980000e+02
2.980000e+02
2.980000e+02
2.980000e+02
2.980000e+02
2.980000e+02
2.980000e+02
2.980000e+02
2.980000e+02
2.980000e+02
2.980000e+02
2.980000e+02
2.980000e+02
2.980000e+02
2.980000e+02
2.980000e+02
2.980000e+02
2.980000e+02
2.980000e+02
2.690823e+03
2.689503e+03
2.688164e+03
2.686805e+03
2.685426e+03
2.684027e+03
2.682607e+03
2.681166e+03
2.679703e+03
2.678218e+03
2.676710e+03
2.675180e+03
2.673625e+03
2.672047e+03
2.670443e+03
2.668815e+03
2.667161e+03
2.665480e+03
2.663772e+03
2.662036e+03
2.660272e+03
2.658480e+03
2.656657e+03
2.654804e+03
2.652920e+03
2.651003e+03
2.649054e+03
2.647071e+03
2.645054e+03
2.643001e+03
2.640912e+03
2.638786e+03
2.636621e+03
2.634417e+03
2.632173e+03
2.629887e+03
2.627558e+03
2.625185e+03
2.622767e+03
2.620302e+03
2.617789e+03
2.615227e+03
2.612613e+03
2.609947e+03
2.607227e+03
2.604451e+03
2.601617e+03
2.598723e+03
2.595768e+03
2.592748e+03
2.589663e+03
2.586509e+03
2.583285e+03
2.579987e+03
2.576613e+03
2.573161e+03
2.569626e+03
2.566006e+03
2.562298e+03
2.558498e+03
2.554602e+03
2.550606e+03
2.546506e+03
2.542297e+03
2.537975e+03
2.533534e+03
2.528969e+03
2.524274e+03
2.519442e+03
2.514468e+03
2.509343e+03
2.504059e+03
2.498609e+03
2.492983e+03
2.487171e+03
2.481162e+03
2.474945e+03
2.468507e+03
2.461834e+03
2.454910e+03
2.447719e+03
2.440242e+03
2.432459e+03
2.424347e+03
2.415880e+03
2.407031e+03
2.397766e+03
2.388051e+03
2.377843e+03
2.367098e+03
2.355761e+03
2.343771e+03
2.331055e+03
2.317531e+03
2.303099e+03
2.287639e+03
2.271010e+03
2.253037e+03
2.233502e+03
2.212133e+03
2.188579e+03
2.162378e+03
2.132909e+03
2.099300e+03
2.060284e+03
2.014018e+03
1.958764e+03
1.906443e+03
1.899992e+03
1.899892e+03
2.980000e+02
2.980000e+02
2.980000e+02
2.980000e+02
2.980000e+02
2.980000e+02
2.980000e+02
2.980000e+02
2.980000e+02
2.980000e+02
2.980000e+02
2.980000e+02
2.980000e+02
2.980000e+02
2.980000e+02
2.980000e+02
2.980000e+02
2.980000e+02
2.980000e+02
2.980000e+02
2.980000e+02
2.980000e+02
2.980000e+02
2.980000e+02
2.980000e+02
2.980000e+02
2.980000e+02
2.980000e+02
2.980000e+02
2.980000e+02
2.980000e+02
2.980000e+02
2.980000e+02
2.980000e+02
2.980000e+02
2.980000e+02
2.980000e+02
2.980000e+02
2.980000e+02
2.980000e+02
2.980000e+02
2.980000e+02
2.980000e+02
2.980000e+02
2.980000e+02
2.980000e+02
2.980000e+02
2.980000e+02
2.980000e+02
2.980000e+02
2.980000e+02
2.980000e+02
2.980000e+02
2.980000e+02
2.980000e+02
2.980000e+02
2.980000e+02
2.980000e+02
2.980000e+02
2.980000e+02
2.980000e+02
2.980000e+02
2.980000e+02
2.980000e+02
2.980000e+02
2.980000e+02
2.980000e+02
2.980000e+02
2.980000e+02
2.980000e+02
2.980000e+02
2.980000e+02
2.980000e+02
2.980000e+02
2.980000e+02
2.980000e+02
2.980000e+02
2.980000e+02
2.980000e+02
2.980000e+02
2.980000e+02
2.980000e+02
2.980000e+02
2.980000e+02
2.980000e+02
2.980000e+02
2.980000e+02
2.980000e+02
2.980000e+02
2.980000e+02
2.690823e+03
2.689503e+03
2.688164e+03
2.686805e+03
2.685426e+03
2.684027e+03
2.682607e+03
2.681166e+03
2.679703e+03
2.678218e+03
2.676710e+03
2.675180e+03
2.673625e+03
2.672047e+03
2.670443e+03
2.668815e+03
2.667161e+03
2.665480e+03
2.663772e+03
2.662036e+03
2.660272e+03
2.658480e+03
2.656657e+03
2.654804e+03
2.652920e+03
2.651003e+03
2.649054e+03
2.647071e+03
2.645054e+03
2.643001e+03
2.640912e+03
2.638786e+03
2.636621e+03
2.634417e+03
2.632173e+03
2.629887e+03
2.627558e+03
2.625185e+03
2.622767e+03
2.620302e+03
2.617789e+03
2.615227e+03
2.612613e+03
2.609947e+03
2.607227e+03
2.604451e+03
2.601617e+03
2.598723e+03
2.595768e+03
2.592748e+03
2.589663e+03
2.586509e+03
2.583285e+03
2.579987e+03
2.576613e+03
2.573161e+03
2.569626e+03
2.566006e+03
2.562298e+03
2.558498e+03
2.554602e+03
2.550606e+03
2.546506e+03
2.542297e+03
2.537975e+03
2.533534e+03
2.528969e+03
2.524274e+03
2.519442e+03
2.514468e+03
2.509343e+03
2.504059e+03
2.498609e+03
2.492983e+03
2.487171e+03
2.481162e+03
2.474945e+03
2.468507e+03
2.461834e+03
2.454910e+03
2.447719e+03
2.440242e+03
2.432459e+03
2.424347e+03
2.415880e+03
2.407031e+03
2.397766e+03
2.388051e+03
2.377843e+03
2.367098e+03
2.355761e+03
2.343771e+03
2.331055e+03
2.317531e+03
2.303099e+03
2.287639e+03
2.271010e+03
2.253037e+03
2.233502e+03
2.212133e+03
2.188579e+03
2.162378e+03
2.132909e+03
2.099300e+03
2.060284e+03
2.014018e+03
1.958764e+03
1.906443e+03
1.899992e+03
1.899892e+03
2.980000e+02
2.980000e+02
2.980000e+02
2.980000e+02
2.980000e+02
2.980000e+02
2.980000e+02
2.980000e+02
2.980000e+02
2.980000e+02
2.980000e+02
2.980000e+02
2.980000e+02
2.980000e+02
2.980000e+02
2.980000e+02
2.980000e+02
2.980000e+02
2.980000e+02
2.980000e+02
2.980000e+02
2.980000e+02
2.980000e+02
2.980000e+02
2.980000e+02
2.980000e+02
2.980000e+02
2.980000e+02
2.980000e+02
2.980000e+02
2.980000e+02
2.980000e+02
2.980000e+02
2.980000e+02
2.980000e+02
2.980000e+02
2.980000e+02
2.980000e+02
2.980000e+02
2.980000e+02
2.980000e+02
2.980000e+02
2.980000e+02
2.980000e+02
2.980000e+02
2.980000e+02
2.980000e+02
2.980000e+02
2.980000e+02
2.980000e+02
2.980000e+02
2.980000e+02
2.980000e+02
2.980000e+02
2.980000e+02
2.980000e+02
2.980000e+02
2.980000e+02
2.980000e+02
2.980000e+02
2.980000e+02
2.980000e+02
2.980000e+02
2.980000e+02
2.980000e+02
2.980000e+02
2.980000e+02
2.980000e+02
2.980000e+02
2.980000e+02
2.980000e+02
2.980000e+02
2.980000e+02
2.980000e+02
2.980000e+02
2.980000e+02
2.980000e+02
2.980000e+02
2.980000e+02
2.980000e+02
2.980000e+02
2.980000e+02
2.980000e+02
2.980000e+02
2.980000e+02
2.980000e+02
2.980000e+02
2.980000e+02
2.980000e+02
2.980000e+02
2.689547e+03
2.688209e+03
2.686851e+03
2.685472e+03
2.684074e+03
2.682655e+03
2.681214e+03
2.679752e+03
2.678268e+03
2.676761e+03
2.675231e+03
2.673677e+03
2.672099e+03
2.670497e+03
2.668869e+03
2.667216e+03
2.665536e+03
2.663829e+03
2.662094e+03
2.660331e+03
2.658540e+03
2.656718e+03
2.654866e+03
2.652983e+03
2.651067e+03
2.649119e+03
2.647138e+03
2.645122e+03
2.643070e+03
2.640982e+03
2.638857e+03
2.636694e+03
2.634491e+03
2.632248e+03
2.629963e+03
2.627636e+03
2.625264e+03
2.622848e+03
2.620384e+03
2.617873e+03
2.615312e+03
2.612701e+03
2.610037e+03
2.607318e+03
2.604544e+03
2.601712e+03
2.598820e+03
2.595867e+03
2.592849e+03
2.589766e+03
2.586615e+03
2.583393e+03
2.580098e+03
2.576727e+03
2.573276e+03
2.569745e+03
2.566128e+03
2.562422e+03
2.558625e+03
2.554732e+03
2.550740e+03
2.546643e+03
2.542438e+03
2.538120e+03
2.533683e+03
2.529122e+03
2.524432e+03
2.519605e+03
2.514635e+03
2.509515e+03
2.504237e+03
2.498793e+03
2.493173e+03
2.487367e+03
2.481365e+03
2.475155e+03
2.468724e+03
2.462059e+03
2.455144e+03
2.447962e+03
2.440495e+03
2.432723e+03
2.424622e+03
2.416167e+03
2.407331e+03
2.398080e+03
2.388381e+03
2.378190e+03
2.367464e+03
2.356147e+03
2.344180e+03
2.331490e+03
2.317994e+03
2.303593e+03
2.288170e+03
2.271583e+03
2.253657e+03
2.234178e+03
2.212875e+03
2.189400e+03
2.163296e+03
2.133948e+03
2.100494e+03
2.061683e+03
2.015691e+03
1.960812e+03
1.907176e+03
1.900016e+03
1.899889e+03
2.980000e+02
2.980000e+02
2.980000e+02
2.980000e+02
2.980000e+02
2.980000e+02
2.980000e+02
2.980000e+02
2.980000e+02
2.980000e+02
2.980000e+02
2.980000e+02
2.980000e+02
2.980000e+02
2.980000e+02
2.980000e+02
2.980000e+02
2.980000e+02
2.980000e+02
2.980000e+02
2.980000e+02
2.980000e+02
2.980000e+02
2.980000e+02
2.980000e+02
2.980000e+02
2.980000e+02
2.980000e+02
2.980000e+02
2.980000e+02
2.980000e+02
2.980000e+02
2.980000e+02
2.980000e+02
2.980000e+02
2.980000e+02
2.980000e+02
2.980000e+02
2.980000e+02
2.980000e+02
2.980000e+02
2.980000e+02
2.980000e+02
2.980000e+02
2.980000e+02
2.980000e+02
2.980000e+02
2.980000e+02
2.980000e+02
2.980000e+02
2.980000e+02
2.980000e+02
2.980000e+02
2.980000e+02
2.980000e+02
2.980000e+02
2.980000e+02
2.980000e+02
2.980000e+02
2.980000e+02
2.980000e+02
2.980000e+02
2.980000e+02
2.980000e+02
2.980000e+02
2.980000e+02
2.980000e+02
2.980000e+02
2.980000e+02
2.980000e+02
2.980000e+02
2.980000e+02
2.980000e+02
2.980000e+02
2.980000e+02
2.980000e+02
2.980000e+02
2.980000e+02
2.980000e+02
2.980000e+02
2.980000e+02
2.980000e+02
2.980000e+02
2.980000e+02
2.980000e+02
2.980000e+02
2.980000e+02
2.980000e+02
2.980000e+02
2.980000e+02
2.980000e+02
2.687071e+03
2.685696e+03
2.684300e+03
2.682885e+03
2.681448e+03
2.679989e+03
2.678508e+03
2.677005e+03
2.675479e+03
2.673929e+03
2.672355e+03
2.670757e+03
2.669133e+03
2.667484e+03
2.665808e+03
2.664106e+03
2.662376e+03
2.660617e+03
2.658830e+03
2.657013e+03
2.655166e+03
2.653288e+03
2.651378e+03
2.649435e+03
2.647459e+03
2.645449e+03
2.643403e+03
2.641321e+03
2.639202e+03
2.637045e+03
2.634848e+03
2.632612e+03
2.630334e+03
2.628013e+03
2.625649e+03
2.623240e+03
2.620784e+03
2.618281e+03
2.615728e+03
2.613125e+03
2.610469e+03
2.607760e+03
2.604994e+03
2.602172e+03
2.599290e+03
2.596346e+03
2.593340e+03
2.590267e+03
2.587127e+03
2.583917e+03
2.580633e+03
2.577275e+03
2.573837e+03
2.570319e+03
2.566716e+03
2.563025e+03
2.559243e+03
2.555366e+03
2.551390e+03
2.547310e+03
2.543123e+03
2.538823e+03
2.534406e+03
2.529865e+03
2.525196e+03
2.520392e+03
2.515445e+03
2.510350e+03
2.505098e+03
2.499681e+03
2.494090e+03
2.488315e+03
2.482345e+03
2.476169e+03
2.469775e+03
2.463149e+03
2.456275e+03
2.449137e+03
2.441718e+03
2.433996e+03
2.425949e+03
2.417553e+03
2.408780e+03
2.399599e+03
2.389974e+03
2.379866e+03
2.369229e+03
2.358012e+03
2.346153e+03
2.333585e+03
2.320225e+03
2.305978e+03
2.290728e+03
2.274339e+03
2.256642e+03
2.237429e+03
2.216441e+03
2.193343e+03
2.167699e+03
2.138924e+03
2.106203e+03
2.068362e+03
2.023668e+03
1.970418e+03
1.911809e+03
1.900192e+03
1.899875e+03
2.980000e+02
2.980000e+02
2.980000e+02
2.980000e+02
2.980000e+02
2.980000e+02
2.980000e+02
2.980000e+02
2.980000e+02
2.980000e+02
2.980000e+02
2.980000e+02
2.980000e+02
2.980000e+02
2.980000e+02
2.980000e+02
2.980000e+02
2.980000e+02
2.980000e+02
2.980000e+02
2.980000e+02
2.980000e+02
2.980000e+02
2.980000e+02
2.980000e+02
2.980000e+02
2.980000e+02
2.980000e+02
2.980000e+02
2.980000e+02
2.980000e+02
2.980000e+02
2.980000e+02
2.980000e+02
2.980000e+02
2.980000e+02
2.980000e+02
2.980000e+02
2.980000e+02
2.980000e+02
2.980000e+02
2.980000e+02
2.980000e+02
2.980000e+02
2.980000e+02
2.980000e+02
2.980000e+02
2.980000e+02
2.980000e+02
2.980000e+02
2.980000e+02
2.980000e+02
2.980000e+02
2.980000e+02
2.980000e+02
2.980000e+02
2.980000e+02
2.980000e+02
2.980000e+02
2.980000e+02
2.980000e+02
2.980000e+02
2.980000e+02
2.980000e+02
2.980000e+02
2.980000e+02
2.980000e+02
2.980000e+02
2.980000e+02
2.980000e+02
2.980000e+02
2.980000e+02
2.980000e+02
2.980000e+02
2.980000e+02
2.980000e+02
2.980000e+02
2.980000e+02
2.980000e+02
2.980000e+02
2.980000e+02
2.980000e+02
2.980000e+02
2.980000e+02
2.980000e+02
2.980000e+02
2.980000e+02
2.980000e+02
2.980000e+02
2.980000e+02
2.980000e+02
2.980000e+02
2.980000e+02
2.683551e+03
2.682124e+03
2.680675e+03
2.679205e+03
2.677713e+03
2.676197e+03
2.674659e+03
2.673096e+03
2.671509e+03
2.669898e+03
2.668260e+03
2.666597e+03
2.664907e+03
2.663190e+03
2.661445e+03
2.659672e+03
2.657869e+03
2.656036e+03
2.654172e+03
2.652277e+03
2.650350e+03
2.648390e+03
2.646396e+03
2.644366e+03
2.642302e+03
2.640200e+03
2.638061e+03
2.635883e+03
2.633666e+03
2.631407e+03
2.629107e+03
2.626763e+03
2.624375e+03
2.621941e+03
2.619460e+03
2.616931e+03
2.614352e+03
2.611721e+03
2.609037e+03
2.606298e+03
2.603502e+03
2.600648e+03
2.597734e+03
2.594757e+03
2.591716e+03
2.588608e+03
2.585431e+03
2.582182e+03
2.578859e+03
2.575459e+03
2.571979e+03
2.568416e+03
2.564767e+03
2.561028e+03
2.557196e+03
2.553266e+03
2.549236e+03
2.545100e+03
2.540853e+03
2.536492e+03
2.532010e+03
2.527402e+03
2.522661e+03
2.517782e+03
2.512758e+03
2.507580e+03
2.502242e+03
2.496733e+03
2.491046e+03
2.485169e+03
2.479091e+03
2.472801e+03
2.466285e+03
2.459529e+03
2.452518e+03
2.445233e+03
2.437655e+03
2.429764e+03
2.421535e+03
2.412942e+03
2.403957e+03
2.394544e+03
2.384668e+03
2.374285e+03
2.363347e+03
2.351797e+03
2.339571e+03
2.326593e+03
2.312775e+03
2.298011e+03
2.282174e+03
2.265114e+03
2.246641e+03
2.226521e+03
2.204460e+03
2.180072e+03
2.152850e+03
2.122099e+03
2.086835e+03
2.045611e+03
1.996481e+03
1.936739e+03
1.901958e+03
1.899874e+03
1.899927e+03
2.980000e+02
2.980000e+02
2.980000e+02
2.980000e+02
2.980000e+02
2.980000e+02
2.980000e+02
2.980000e+02
2.980000e+02
2.980000e+02
2.980000e+02
2.980000e+02
2.980000e+02
2.980000e+02
2.980000e+02
2.980000e+02
2.980000e+02
2.980000e+02
2.980000e+02
2.980000e+02
2.980000e+02
2.980000e+02
2.980000e+02
2.980000e+02
2.980000e+02
2.980000e+02
2.980000e+02
2.980000e+02
2.980000e+02
2.980000e+02
2.980000e+02
2.980000e+02
2.980000e+02
2.980000e+02
2.980000e+02
2.980000e+02
2.980000e+02
2.980000e+02
2.980000e+02
2.980000e+02
2.980000e+02
2.980000e+02
2.980000e+02
2.980000e+02
2.980000e+02
2.980000e+02
2.980000e+02
2.980000e+02
2.980000e+02
2.980000e+02
2.980000e+02
2.980000e+02
2.980000e+02
2.980000e+02
2.980000e+02
2.980000e+02
2.980000e+02
2.980000e+02
2.980000e+02
2.980000e+02
2.980000e+02
2.980000e+02
2.980000e+02
2.980000e+02
2.980000e+02
2.980000e+02
2.980000e+02
2.980000e+02
2.980000e+02
2.980000e+02
2.980000e+02
2.980000e+02
2.980000e+02
2.980000e+02
2.980000e+02
2.980000e+02
2.980000e+02
2.980000e+02
2.980000e+02
2.980000e+02
2.980000e+02
2.980000e+02
2.980000e+02
2.980000e+02
2.980000e+02
2.980000e+02
2.980000e+02
2.980000e+02
2.980000e+02
2.980000e+02
2.980000e+02
2.980000e+02
2.980000e+02
2.980000e+02
2.980000e+02
2.679241e+03
2.677749e+03
2.676235e+03
2.674696e+03
2.673135e+03
2.671548e+03
2.669937e+03
2.668301e+03
2.666638e+03
2.664949e+03
2.663232e+03
2.661488e+03
2.659715e+03
2.657913e+03
2.656081e+03
2.654218e+03
2.652324e+03
2.650398e+03
2.648438e+03
2.646445e+03
2.644416e+03
2.642352e+03
2.640252e+03
2.638114e+03
2.635937e+03
2.633720e+03
2.631463e+03
2.629164e+03
2.626821e+03
2.624434e+03
2.622001e+03
2.619522e+03
2.616993e+03
2.614415e+03
2.611786e+03
2.609103e+03
2.606365e+03
2.603571e+03
2.600719e+03
2.597806e+03
2.594831e+03
2.591791e+03
2.588685e+03
2.585509e+03
2.582262e+03
2.578941e+03
2.575543e+03
2.572065e+03
2.568504e+03
2.564857e+03
2.561120e+03
2.557291e+03
2.553364e+03
2.549336e+03
2.545202e+03
2.540959e+03
2.536600e+03
2.532121e+03
2.527516e+03
2.522779e+03
2.517903e+03
2.512883e+03
2.507709e+03
2.502374e+03
2.496870e+03
2.491187e+03
2.485315e+03
2.479242e+03
2.472957e+03
2.466447e+03
2.459698e+03
2.452692e+03
2.445414e+03
2.437844e+03
2.429960e+03
2.421740e+03
2.413157e+03
2.404181e+03
2.394780e+03
2.384915e+03
2.374545e+03
2.363621e+03
2.352087e+03
2.339878e+03
2.326920e+03
2.313123e+03
2.298384e+03
2.282575e+03
2.265547e+03
2.247111e+03
2.227035e+03
2.205025e+03
2.180700e+03
2.153554e+03
2.122899e+03
2.087761e+03
2.046704e+03
1.997786e+03
1.938363e+03
1.902149e+03
1.899877e+03
1.899925e+03
2.980000e+02
2.980000e+02
2.980000e+02
2.980000e+02
2.980000e+02
2.980000e+02
2.980000e+02
2.980000e+02
2.980000e+02
2.980000e+02
2.980000e+02
2.980000e+02
2.980000e+02
2.980000e+02
2.980000e+02
2.980000e+02
2.980000e+02
2.980000e+02
2.980000e+02
2.980000e+02
2.980000e+02
2.980000e+02
2.980000e+02
2.980000e+02
2.980000e+02
2.980000e+02
2.980000e+02
2.980000e+02
2.980000e+02
2.980000e+02
2.980000e+02
2.980000e+02
2.980000e+02
2.980000e+02
2.980000e+02
2.980000e+02
2.980000e+02
2.980000e+02
2.980000e+02
2.980000e+02
2.980000e+02
2.980000e+02
2.980000e+02
2.980000e+02
2.980000e+02
2.980000e+02
2.980000e+02
2.980000e+02
2.980000e+02
2.980000e+02
2.980000e+02
2.980000e+02
2.980000e+02
2.980000e+02
2.980000e+02
2.980000e+02
2.980000e+02
2.980000e+02
2.980000e+02
2.980000e+02
2.980000e+02
2.980000e+02
2.980000e+02
2.980000e+02
2.980000e+02
2.980000e+02
2.980000e+02
2.980000e+02
2.980000e+02
2.980000e+02
2.980000e+02
2.980000e+02
2.980000e+02
2.980000e+02
2.980000e+02
2.980000e+02
2.980000e+02
2.980000e+02
2.980000e+02
2.980000e+02
2.980000e+02
2.980000e+02
2.980000e+02
2.980000e+02
2.980000e+02
2.980000e+02
2.980000e+02
2.980000e+02
2.980000e+02
2.980000e+02
2.980000e+02
2.980000e+02
2.980000e+02
2.980000e+02
2.980000e+02
2.980000e+02
2.980000e+02
2.980000e+02
2.674497e+03
2.672932e+03
2.671342e+03
2.669728e+03
2.668088e+03
2.666422e+03
2.664730e+03
2.663010e+03
2.661262e+03
2.659485e+03
2.657679e+03
2.655843e+03
2.653976e+03
2.652078e+03
2.650147e+03
2.648183e+03
2.646186e+03
2.644153e+03
2.642084e+03
2.639979e+03
2.637836e+03
2.635654e+03
2.633432e+03
2.631169e+03
2.628864e+03
2.626516e+03
2.624124e+03
2.621685e+03
2.619199e+03
2.616665e+03
2.614080e+03
2.611443e+03
2.608754e+03
2.606009e+03
2.603208e+03
2.600347e+03
2.597427e+03
2.594443e+03
2.591395e+03
2.588280e+03
2.585095e+03
2.581839e+03
2.578508e+03
2.575100e+03
2.571611e+03
2.568039e+03
2.564381e+03
2.560633e+03
2.556791e+03
2.552851e+03
2.548810e+03
2.544662e+03
2.540404e+03
2.536030e+03
2.531535e+03
2.526914e+03
2.522159e+03
2.517266e+03
2.512225e+03
2.507032e+03
2.501676e+03
2.496149e+03
2.490442e+03
2.484545e+03
2.478446e+03
2.472133e+03
2.465593e+03
2.458811e+03
2.451771e+03
2.444457e+03
2.436847e+03
2.428922e+03
2.420657e+03
2.412025e+03
2.402996e+03
2.393537e+03
2.383610e+03
2.373172e+03
2.362172e+03
2.350555e+03
2.338254e+03
2.325193e+03
2.311282e+03
2.296412e+03
2.280456e+03
2.263257e+03
2.244625e+03
2.224318e+03
2.202034e+03
2.177377e+03
2.149823e+03
2.118654e+03
2.082846e+03
2.040891e+03
1.990859e+03
1.929989e+03
1.901294e+03
1.899865e+03
2.980000e+02
2.980000e+02
2.980000e+02
2.980000e+02
2.980000e+02
2.980000e+02
2.980000e+02
2.980000e+02
2.980000e+02
2.980000e+02
2.980000e+02
2.980000e+02
2.980000e+02
2.980000e+02
2.980000e+02
2.980000e+02
2.980000e+02
2.980000e+02
2.980000e+02
2.980000e+02
2.980000e+02
2.980000e+02
2.980000e+02
2.980000e+02
2.980000e+02
2.980000e+02
2.980000e+02
2.980000e+02
2.980000e+02
2.980000e+02
2.980000e+02
2.980000e+02
2.980000e+02
2.980000e+02
2.980000e+02
2.980000e+02
2.980000e+02
2.980000e+02
2.980000e+02
2.980000e+02
2.980000e+02
2.980000e+02
2.980000e+02
2.980000e+02
2.980000e+02
2.980000e+02
2.980000e+02
2.980000e+02
2.980000e+02
2.980000e+02
2.980000e+02
2.980000e+02
2.980000e+02
2.980000e+02
2.980000e+02
2.980000e+02
2.980000e+02
2.980000e+02
2.980000e+02
2.980000e+02
2.980000e+02
2.980000e+02
2.980000e+02
2.980000e+02
2.980000e+02
2.980000e+02
2.980000e+02
2.980000e+02
2.980000e+02
2.980000e+02
2.980000e+02
2.980000e+02
2.980000e+02
2.980000e+02
2.980000e+02
2.980000e+02
2.980000e+02
2.980000e+02
2.980000e+02
2.980000e+02
2.980000e+02
2.980000e+02
2.980000e+02
2.980000e+02
2.980000e+02
2.980000e+02
2.980000e+02
2.980000e+02
2.980000e+02
2.980000e+02
2.980000e+02
2.980000e+02
2.980000e+02
2.980000e+02
2.980000e+02
2.980000e+02
2.980000e+02
2.980000e+02
2.980000e+02
2.980000e+02
2.980000e+02
2.980000e+02
2.669768e+03
2.668129e+03
2.666463e+03
2.664771e+03
2.663052e+03
2.661305e+03
2.659529e+03
2.657724e+03
2.655888e+03
2.654022e+03
2.652125e+03
2.650195e+03
2.648232e+03
2.646235e+03
2.644203e+03
2.642135e+03
2.640031e+03
2.637889e+03
2.635708e+03
2.633487e+03
2.631225e+03
2.628921e+03
2.626574e+03
2.624183e+03
2.621745e+03
2.619260e+03
2.616727e+03
2.614144e+03
2.611509e+03
2.608820e+03
2.606077e+03
2.603277e+03
2.600418e+03
2.597499e+03
2.594517e+03
2.591471e+03
2.588357e+03
2.585174e+03
2.581919e+03
2.578590e+03
2.575184e+03
2.571698e+03
2.568128e+03
2.564472e+03
2.560725e+03
2.556886e+03
2.552949e+03
2.548910e+03
2.544765e+03
2.540510e+03
2.536139e+03
2.531647e+03
2.527028e+03
2.522277e+03
2.517387e+03
2.512350e+03
2.507160e+03
2.501809e+03
2.496286e+03
2.490584e+03
2.484691e+03
2.478597e+03
2.472290e+03
2.465755e+03
2.458979e+03
2.451947e+03
2.444639e+03
2.437037e+03
2.429120e+03
2.420863e+03
2.412240e+03
2.403222e+03
2.393774e+03
2.383859e+03
2.373433e+03
2.362448e+03
2.350847e+03
2.338564e+03
2.325522e+03
2.311633e+03
2.296788e+03
2.280860e+03
2.263694e+03
2.245099e+03
2.224836e+03
2.202605e+03
2.178011e+03
2.150536e+03