
    /*--------------------------------*- C++ -*----------------------------------*    =========                 |
    \      /  F ield         | OpenFOAM: The Open Source CFD Toolbox
    \    /   O peration     | Website:  https://openfoam.org
        \  /    A nd           | Version:  6
        \/     M anipulation  |
    \*---------------------------------------------------------------------------*/
    FoamFile
    {
        version     2.0;
        format      ascii;
        class       volVectorField;
        location    "0";
        object     Vx;
    }
    // * * * * * * * * * * * * * * * * * * * * * * * * * * * * * * * * * * * * * //
 
    dimensions      [0 1 -1 0 0 0 0];
 
    internalField   nonuniform List<vector>
    8000
(
(9.321310e+02 0.000000e+00 0.000000e+00)
(9.330981e+02 0.000000e+00 0.000000e+00)
(9.340746e+02 0.000000e+00 0.000000e+00)
(9.350607e+02 0.000000e+00 0.000000e+00)
(9.360564e+02 0.000000e+00 0.000000e+00)
(9.370621e+02 0.000000e+00 0.000000e+00)
(9.380779e+02 0.000000e+00 0.000000e+00)
(9.391039e+02 0.000000e+00 0.000000e+00)
(9.401404e+02 0.000000e+00 0.000000e+00)
(9.411876e+02 0.000000e+00 0.000000e+00)
(9.422456e+02 0.000000e+00 0.000000e+00)
(9.433148e+02 0.000000e+00 0.000000e+00)
(9.443953e+02 0.000000e+00 0.000000e+00)
(9.454873e+02 0.000000e+00 0.000000e+00)
(9.465911e+02 0.000000e+00 0.000000e+00)
(9.477069e+02 0.000000e+00 0.000000e+00)
(9.488350e+02 0.000000e+00 0.000000e+00)
(9.499757e+02 0.000000e+00 0.000000e+00)
(9.511291e+02 0.000000e+00 0.000000e+00)
(9.522956e+02 0.000000e+00 0.000000e+00)
(9.534755e+02 0.000000e+00 0.000000e+00)
(9.546690e+02 0.000000e+00 0.000000e+00)
(9.558765e+02 0.000000e+00 0.000000e+00)
(9.570983e+02 0.000000e+00 0.000000e+00)
(9.583347e+02 0.000000e+00 0.000000e+00)
(9.595861e+02 0.000000e+00 0.000000e+00)
(9.608528e+02 0.000000e+00 0.000000e+00)
(9.621352e+02 0.000000e+00 0.000000e+00)
(9.634336e+02 0.000000e+00 0.000000e+00)
(9.647485e+02 0.000000e+00 0.000000e+00)
(9.660803e+02 0.000000e+00 0.000000e+00)
(9.674293e+02 0.000000e+00 0.000000e+00)
(9.687962e+02 0.000000e+00 0.000000e+00)
(9.701812e+02 0.000000e+00 0.000000e+00)
(9.715850e+02 0.000000e+00 0.000000e+00)
(9.730080e+02 0.000000e+00 0.000000e+00)
(9.744507e+02 0.000000e+00 0.000000e+00)
(9.759137e+02 0.000000e+00 0.000000e+00)
(9.773976e+02 0.000000e+00 0.000000e+00)
(9.789030e+02 0.000000e+00 0.000000e+00)
(9.804304e+02 0.000000e+00 0.000000e+00)
(9.819807e+02 0.000000e+00 0.000000e+00)
(9.835544e+02 0.000000e+00 0.000000e+00)
(9.851523e+02 0.000000e+00 0.000000e+00)
(9.867751e+02 0.000000e+00 0.000000e+00)
(9.884237e+02 0.000000e+00 0.000000e+00)
(9.900989e+02 0.000000e+00 0.000000e+00)
(9.918015e+02 0.000000e+00 0.000000e+00)
(9.935326e+02 0.000000e+00 0.000000e+00)
(9.952930e+02 0.000000e+00 0.000000e+00)
(9.970839e+02 0.000000e+00 0.000000e+00)
(9.989063e+02 0.000000e+00 0.000000e+00)
(1.000761e+03 0.000000e+00 0.000000e+00)
(1.002650e+03 0.000000e+00 0.000000e+00)
(1.004575e+03 0.000000e+00 0.000000e+00)
(1.006536e+03 0.000000e+00 0.000000e+00)
(1.008534e+03 0.000000e+00 0.000000e+00)
(1.010573e+03 0.000000e+00 0.000000e+00)
(1.012653e+03 0.000000e+00 0.000000e+00)
(1.014776e+03 0.000000e+00 0.000000e+00)
(1.016943e+03 0.000000e+00 0.000000e+00)
(1.019158e+03 0.000000e+00 0.000000e+00)
(1.021422e+03 0.000000e+00 0.000000e+00)
(1.023738e+03 0.000000e+00 0.000000e+00)
(1.026107e+03 0.000000e+00 0.000000e+00)
(1.028534e+03 0.000000e+00 0.000000e+00)
(1.031019e+03 0.000000e+00 0.000000e+00)
(1.033568e+03 0.000000e+00 0.000000e+00)
(1.036183e+03 0.000000e+00 0.000000e+00)
(1.038868e+03 0.000000e+00 0.000000e+00)
(1.041627e+03 0.000000e+00 0.000000e+00)
(1.044465e+03 0.000000e+00 0.000000e+00)
(1.047385e+03 0.000000e+00 0.000000e+00)
(1.050395e+03 0.000000e+00 0.000000e+00)
(1.053499e+03 0.000000e+00 0.000000e+00)
(1.056705e+03 0.000000e+00 0.000000e+00)
(1.060019e+03 0.000000e+00 0.000000e+00)
(1.063449e+03 0.000000e+00 0.000000e+00)
(1.067005e+03 0.000000e+00 0.000000e+00)
(1.070697e+03 0.000000e+00 0.000000e+00)
(1.074535e+03 0.000000e+00 0.000000e+00)
(1.078535e+03 0.000000e+00 0.000000e+00)
(1.082709e+03 0.000000e+00 0.000000e+00)
(1.087076e+03 0.000000e+00 0.000000e+00)
(1.091655e+03 0.000000e+00 0.000000e+00)
(1.096470e+03 0.000000e+00 0.000000e+00)
(1.101548e+03 0.000000e+00 0.000000e+00)
(1.106921e+03 0.000000e+00 0.000000e+00)
(1.112629e+03 0.000000e+00 0.000000e+00)
(1.118720e+03 0.000000e+00 0.000000e+00)
(1.125252e+03 0.000000e+00 0.000000e+00)
(1.132300e+03 0.000000e+00 0.000000e+00)
(1.139959e+03 0.000000e+00 0.000000e+00)
(1.148354e+03 0.000000e+00 0.000000e+00)
(1.157653e+03 0.000000e+00 0.000000e+00)
(1.168094e+03 0.000000e+00 0.000000e+00)
(1.180019e+03 0.000000e+00 0.000000e+00)
(1.193876e+03 0.000000e+00 0.000000e+00)
(1.210710e+03 0.000000e+00 0.000000e+00)
(1.221403e+03 0.000000e+00 0.000000e+00)
(1.222076e+03 0.000000e+00 0.000000e+00)
(1.222061e+03 0.000000e+00 0.000000e+00)
(0.000000e+00 0.000000e+00 0.000000e+00)
(0.000000e+00 0.000000e+00 0.000000e+00)
(0.000000e+00 0.000000e+00 0.000000e+00)
(0.000000e+00 0.000000e+00 0.000000e+00)
(0.000000e+00 0.000000e+00 0.000000e+00)
(0.000000e+00 0.000000e+00 0.000000e+00)
(0.000000e+00 0.000000e+00 0.000000e+00)
(0.000000e+00 0.000000e+00 0.000000e+00)
(0.000000e+00 0.000000e+00 0.000000e+00)
(0.000000e+00 0.000000e+00 0.000000e+00)
(0.000000e+00 0.000000e+00 0.000000e+00)
(0.000000e+00 0.000000e+00 0.000000e+00)
(0.000000e+00 0.000000e+00 0.000000e+00)
(0.000000e+00 0.000000e+00 0.000000e+00)
(0.000000e+00 0.000000e+00 0.000000e+00)
(0.000000e+00 0.000000e+00 0.000000e+00)
(0.000000e+00 0.000000e+00 0.000000e+00)
(0.000000e+00 0.000000e+00 0.000000e+00)
(0.000000e+00 0.000000e+00 0.000000e+00)
(0.000000e+00 0.000000e+00 0.000000e+00)
(0.000000e+00 0.000000e+00 0.000000e+00)
(0.000000e+00 0.000000e+00 0.000000e+00)
(0.000000e+00 0.000000e+00 0.000000e+00)
(0.000000e+00 0.000000e+00 0.000000e+00)
(0.000000e+00 0.000000e+00 0.000000e+00)
(0.000000e+00 0.000000e+00 0.000000e+00)
(0.000000e+00 0.000000e+00 0.000000e+00)
(0.000000e+00 0.000000e+00 0.000000e+00)
(0.000000e+00 0.000000e+00 0.000000e+00)
(0.000000e+00 0.000000e+00 0.000000e+00)
(0.000000e+00 0.000000e+00 0.000000e+00)
(0.000000e+00 0.000000e+00 0.000000e+00)
(0.000000e+00 0.000000e+00 0.000000e+00)
(0.000000e+00 0.000000e+00 0.000000e+00)
(0.000000e+00 0.000000e+00 0.000000e+00)
(0.000000e+00 0.000000e+00 0.000000e+00)
(0.000000e+00 0.000000e+00 0.000000e+00)
(0.000000e+00 0.000000e+00 0.000000e+00)
(0.000000e+00 0.000000e+00 0.000000e+00)
(0.000000e+00 0.000000e+00 0.000000e+00)
(0.000000e+00 0.000000e+00 0.000000e+00)
(0.000000e+00 0.000000e+00 0.000000e+00)
(0.000000e+00 0.000000e+00 0.000000e+00)
(0.000000e+00 0.000000e+00 0.000000e+00)
(0.000000e+00 0.000000e+00 0.000000e+00)
(0.000000e+00 0.000000e+00 0.000000e+00)
(0.000000e+00 0.000000e+00 0.000000e+00)
(0.000000e+00 0.000000e+00 0.000000e+00)
(0.000000e+00 0.000000e+00 0.000000e+00)
(0.000000e+00 0.000000e+00 0.000000e+00)
(0.000000e+00 0.000000e+00 0.000000e+00)
(0.000000e+00 0.000000e+00 0.000000e+00)
(0.000000e+00 0.000000e+00 0.000000e+00)
(0.000000e+00 0.000000e+00 0.000000e+00)
(0.000000e+00 0.000000e+00 0.000000e+00)
(0.000000e+00 0.000000e+00 0.000000e+00)
(0.000000e+00 0.000000e+00 0.000000e+00)
(0.000000e+00 0.000000e+00 0.000000e+00)
(0.000000e+00 0.000000e+00 0.000000e+00)
(0.000000e+00 0.000000e+00 0.000000e+00)
(0.000000e+00 0.000000e+00 0.000000e+00)
(0.000000e+00 0.000000e+00 0.000000e+00)
(0.000000e+00 0.000000e+00 0.000000e+00)
(0.000000e+00 0.000000e+00 0.000000e+00)
(0.000000e+00 0.000000e+00 0.000000e+00)
(0.000000e+00 0.000000e+00 0.000000e+00)
(0.000000e+00 0.000000e+00 0.000000e+00)
(0.000000e+00 0.000000e+00 0.000000e+00)
(0.000000e+00 0.000000e+00 0.000000e+00)
(0.000000e+00 0.000000e+00 0.000000e+00)
(0.000000e+00 0.000000e+00 0.000000e+00)
(0.000000e+00 0.000000e+00 0.000000e+00)
(0.000000e+00 0.000000e+00 0.000000e+00)
(0.000000e+00 0.000000e+00 0.000000e+00)
(0.000000e+00 0.000000e+00 0.000000e+00)
(0.000000e+00 0.000000e+00 0.000000e+00)
(0.000000e+00 0.000000e+00 0.000000e+00)
(0.000000e+00 0.000000e+00 0.000000e+00)
(0.000000e+00 0.000000e+00 0.000000e+00)
(0.000000e+00 0.000000e+00 0.000000e+00)
(0.000000e+00 0.000000e+00 0.000000e+00)
(0.000000e+00 0.000000e+00 0.000000e+00)
(0.000000e+00 0.000000e+00 0.000000e+00)
(0.000000e+00 0.000000e+00 0.000000e+00)
(0.000000e+00 0.000000e+00 0.000000e+00)
(0.000000e+00 0.000000e+00 0.000000e+00)
(0.000000e+00 0.000000e+00 0.000000e+00)
(0.000000e+00 0.000000e+00 0.000000e+00)
(0.000000e+00 0.000000e+00 0.000000e+00)
(0.000000e+00 0.000000e+00 0.000000e+00)
(0.000000e+00 0.000000e+00 0.000000e+00)
(0.000000e+00 0.000000e+00 0.000000e+00)
(0.000000e+00 0.000000e+00 0.000000e+00)
(0.000000e+00 0.000000e+00 0.000000e+00)
(0.000000e+00 0.000000e+00 0.000000e+00)
(0.000000e+00 0.000000e+00 0.000000e+00)
(0.000000e+00 0.000000e+00 0.000000e+00)
(0.000000e+00 0.000000e+00 0.000000e+00)
(9.293073e+02 0.000000e+00 0.000000e+00)
(9.302474e+02 0.000000e+00 0.000000e+00)
(9.311965e+02 0.000000e+00 0.000000e+00)
(9.321546e+02 0.000000e+00 0.000000e+00)
(9.331219e+02 0.000000e+00 0.000000e+00)
(9.340986e+02 0.000000e+00 0.000000e+00)
(9.350849e+02 0.000000e+00 0.000000e+00)
(9.360809e+02 0.000000e+00 0.000000e+00)
(9.370868e+02 0.000000e+00 0.000000e+00)
(9.381028e+02 0.000000e+00 0.000000e+00)
(9.391291e+02 0.000000e+00 0.000000e+00)
(9.401659e+02 0.000000e+00 0.000000e+00)
(9.412133e+02 0.000000e+00 0.000000e+00)
(9.422716e+02 0.000000e+00 0.000000e+00)
(9.433411e+02 0.000000e+00 0.000000e+00)
(9.444218e+02 0.000000e+00 0.000000e+00)
(9.455141e+02 0.000000e+00 0.000000e+00)
(9.466182e+02 0.000000e+00 0.000000e+00)
(9.477344e+02 0.000000e+00 0.000000e+00)
(9.488628e+02 0.000000e+00 0.000000e+00)
(9.500037e+02 0.000000e+00 0.000000e+00)
(9.511575e+02 0.000000e+00 0.000000e+00)
(9.523243e+02 0.000000e+00 0.000000e+00)
(9.535045e+02 0.000000e+00 0.000000e+00)
(9.546984e+02 0.000000e+00 0.000000e+00)
(9.559062e+02 0.000000e+00 0.000000e+00)
(9.571284e+02 0.000000e+00 0.000000e+00)
(9.583652e+02 0.000000e+00 0.000000e+00)
(9.596169e+02 0.000000e+00 0.000000e+00)
(9.608840e+02 0.000000e+00 0.000000e+00)
(9.621667e+02 0.000000e+00 0.000000e+00)
(9.634655e+02 0.000000e+00 0.000000e+00)
(9.647808e+02 0.000000e+00 0.000000e+00)
(9.661130e+02 0.000000e+00 0.000000e+00)
(9.674625e+02 0.000000e+00 0.000000e+00)
(9.688298e+02 0.000000e+00 0.000000e+00)
(9.702153e+02 0.000000e+00 0.000000e+00)
(9.716195e+02 0.000000e+00 0.000000e+00)
(9.730430e+02 0.000000e+00 0.000000e+00)
(9.744862e+02 0.000000e+00 0.000000e+00)
(9.759497e+02 0.000000e+00 0.000000e+00)
(9.774341e+02 0.000000e+00 0.000000e+00)
(9.789400e+02 0.000000e+00 0.000000e+00)
(9.804681e+02 0.000000e+00 0.000000e+00)
(9.820189e+02 0.000000e+00 0.000000e+00)
(9.835931e+02 0.000000e+00 0.000000e+00)
(9.851916e+02 0.000000e+00 0.000000e+00)
(9.868151e+02 0.000000e+00 0.000000e+00)
(9.884643e+02 0.000000e+00 0.000000e+00)
(9.901402e+02 0.000000e+00 0.000000e+00)
(9.918435e+02 0.000000e+00 0.000000e+00)
(9.935753e+02 0.000000e+00 0.000000e+00)
(9.953364e+02 0.000000e+00 0.000000e+00)
(9.971281e+02 0.000000e+00 0.000000e+00)
(9.989513e+02 0.000000e+00 0.000000e+00)
(1.000807e+03 0.000000e+00 0.000000e+00)
(1.002697e+03 0.000000e+00 0.000000e+00)
(1.004622e+03 0.000000e+00 0.000000e+00)
(1.006584e+03 0.000000e+00 0.000000e+00)
(1.008584e+03 0.000000e+00 0.000000e+00)
(1.010623e+03 0.000000e+00 0.000000e+00)
(1.012704e+03 0.000000e+00 0.000000e+00)
(1.014828e+03 0.000000e+00 0.000000e+00)
(1.016997e+03 0.000000e+00 0.000000e+00)
(1.019213e+03 0.000000e+00 0.000000e+00)
(1.021478e+03 0.000000e+00 0.000000e+00)
(1.023795e+03 0.000000e+00 0.000000e+00)
(1.026166e+03 0.000000e+00 0.000000e+00)
(1.028594e+03 0.000000e+00 0.000000e+00)
(1.031081e+03 0.000000e+00 0.000000e+00)
(1.033631e+03 0.000000e+00 0.000000e+00)
(1.036248e+03 0.000000e+00 0.000000e+00)
(1.038935e+03 0.000000e+00 0.000000e+00)
(1.041695e+03 0.000000e+00 0.000000e+00)
(1.044535e+03 0.000000e+00 0.000000e+00)
(1.047458e+03 0.000000e+00 0.000000e+00)
(1.050470e+03 0.000000e+00 0.000000e+00)
(1.053576e+03 0.000000e+00 0.000000e+00)
(1.056784e+03 0.000000e+00 0.000000e+00)
(1.060101e+03 0.000000e+00 0.000000e+00)
(1.063534e+03 0.000000e+00 0.000000e+00)
(1.067093e+03 0.000000e+00 0.000000e+00)
(1.070789e+03 0.000000e+00 0.000000e+00)
(1.074631e+03 0.000000e+00 0.000000e+00)
(1.078635e+03 0.000000e+00 0.000000e+00)
(1.082813e+03 0.000000e+00 0.000000e+00)
(1.087185e+03 0.000000e+00 0.000000e+00)
(1.091770e+03 0.000000e+00 0.000000e+00)
(1.096591e+03 0.000000e+00 0.000000e+00)
(1.101676e+03 0.000000e+00 0.000000e+00)
(1.107057e+03 0.000000e+00 0.000000e+00)
(1.112773e+03 0.000000e+00 0.000000e+00)
(1.118874e+03 0.000000e+00 0.000000e+00)
(1.125418e+03 0.000000e+00 0.000000e+00)
(1.132480e+03 0.000000e+00 0.000000e+00)
(1.140155e+03 0.000000e+00 0.000000e+00)
(1.148570e+03 0.000000e+00 0.000000e+00)
(1.157894e+03 0.000000e+00 0.000000e+00)
(1.168366e+03 0.000000e+00 0.000000e+00)
(1.180332e+03 0.000000e+00 0.000000e+00)
(1.194241e+03 0.000000e+00 0.000000e+00)
(1.211185e+03 0.000000e+00 0.000000e+00)
(1.221459e+03 0.000000e+00 0.000000e+00)
(1.222076e+03 0.000000e+00 0.000000e+00)
(1.222061e+03 0.000000e+00 0.000000e+00)
(0.000000e+00 0.000000e+00 0.000000e+00)
(0.000000e+00 0.000000e+00 0.000000e+00)
(0.000000e+00 0.000000e+00 0.000000e+00)
(0.000000e+00 0.000000e+00 0.000000e+00)
(0.000000e+00 0.000000e+00 0.000000e+00)
(0.000000e+00 0.000000e+00 0.000000e+00)
(0.000000e+00 0.000000e+00 0.000000e+00)
(0.000000e+00 0.000000e+00 0.000000e+00)
(0.000000e+00 0.000000e+00 0.000000e+00)
(0.000000e+00 0.000000e+00 0.000000e+00)
(0.000000e+00 0.000000e+00 0.000000e+00)
(0.000000e+00 0.000000e+00 0.000000e+00)
(0.000000e+00 0.000000e+00 0.000000e+00)
(0.000000e+00 0.000000e+00 0.000000e+00)
(0.000000e+00 0.000000e+00 0.000000e+00)
(0.000000e+00 0.000000e+00 0.000000e+00)
(0.000000e+00 0.000000e+00 0.000000e+00)
(0.000000e+00 0.000000e+00 0.000000e+00)
(0.000000e+00 0.000000e+00 0.000000e+00)
(0.000000e+00 0.000000e+00 0.000000e+00)
(0.000000e+00 0.000000e+00 0.000000e+00)
(0.000000e+00 0.000000e+00 0.000000e+00)
(0.000000e+00 0.000000e+00 0.000000e+00)
(0.000000e+00 0.000000e+00 0.000000e+00)
(0.000000e+00 0.000000e+00 0.000000e+00)
(0.000000e+00 0.000000e+00 0.000000e+00)
(0.000000e+00 0.000000e+00 0.000000e+00)
(0.000000e+00 0.000000e+00 0.000000e+00)
(0.000000e+00 0.000000e+00 0.000000e+00)
(0.000000e+00 0.000000e+00 0.000000e+00)
(0.000000e+00 0.000000e+00 0.000000e+00)
(0.000000e+00 0.000000e+00 0.000000e+00)
(0.000000e+00 0.000000e+00 0.000000e+00)
(0.000000e+00 0.000000e+00 0.000000e+00)
(0.000000e+00 0.000000e+00 0.000000e+00)
(0.000000e+00 0.000000e+00 0.000000e+00)
(0.000000e+00 0.000000e+00 0.000000e+00)
(0.000000e+00 0.000000e+00 0.000000e+00)
(0.000000e+00 0.000000e+00 0.000000e+00)
(0.000000e+00 0.000000e+00 0.000000e+00)
(0.000000e+00 0.000000e+00 0.000000e+00)
(0.000000e+00 0.000000e+00 0.000000e+00)
(0.000000e+00 0.000000e+00 0.000000e+00)
(0.000000e+00 0.000000e+00 0.000000e+00)
(0.000000e+00 0.000000e+00 0.000000e+00)
(0.000000e+00 0.000000e+00 0.000000e+00)
(0.000000e+00 0.000000e+00 0.000000e+00)
(0.000000e+00 0.000000e+00 0.000000e+00)
(0.000000e+00 0.000000e+00 0.000000e+00)
(0.000000e+00 0.000000e+00 0.000000e+00)
(0.000000e+00 0.000000e+00 0.000000e+00)
(0.000000e+00 0.000000e+00 0.000000e+00)
(0.000000e+00 0.000000e+00 0.000000e+00)
(0.000000e+00 0.000000e+00 0.000000e+00)
(0.000000e+00 0.000000e+00 0.000000e+00)
(0.000000e+00 0.000000e+00 0.000000e+00)
(0.000000e+00 0.000000e+00 0.000000e+00)
(0.000000e+00 0.000000e+00 0.000000e+00)
(0.000000e+00 0.000000e+00 0.000000e+00)
(0.000000e+00 0.000000e+00 0.000000e+00)
(0.000000e+00 0.000000e+00 0.000000e+00)
(0.000000e+00 0.000000e+00 0.000000e+00)
(0.000000e+00 0.000000e+00 0.000000e+00)
(0.000000e+00 0.000000e+00 0.000000e+00)
(0.000000e+00 0.000000e+00 0.000000e+00)
(0.000000e+00 0.000000e+00 0.000000e+00)
(0.000000e+00 0.000000e+00 0.000000e+00)
(0.000000e+00 0.000000e+00 0.000000e+00)
(0.000000e+00 0.000000e+00 0.000000e+00)
(0.000000e+00 0.000000e+00 0.000000e+00)
(0.000000e+00 0.000000e+00 0.000000e+00)
(0.000000e+00 0.000000e+00 0.000000e+00)
(0.000000e+00 0.000000e+00 0.000000e+00)
(0.000000e+00 0.000000e+00 0.000000e+00)
(0.000000e+00 0.000000e+00 0.000000e+00)
(0.000000e+00 0.000000e+00 0.000000e+00)
(0.000000e+00 0.000000e+00 0.000000e+00)
(0.000000e+00 0.000000e+00 0.000000e+00)
(0.000000e+00 0.000000e+00 0.000000e+00)
(0.000000e+00 0.000000e+00 0.000000e+00)
(0.000000e+00 0.000000e+00 0.000000e+00)
(0.000000e+00 0.000000e+00 0.000000e+00)
(0.000000e+00 0.000000e+00 0.000000e+00)
(0.000000e+00 0.000000e+00 0.000000e+00)
(0.000000e+00 0.000000e+00 0.000000e+00)
(0.000000e+00 0.000000e+00 0.000000e+00)
(0.000000e+00 0.000000e+00 0.000000e+00)
(0.000000e+00 0.000000e+00 0.000000e+00)
(0.000000e+00 0.000000e+00 0.000000e+00)
(0.000000e+00 0.000000e+00 0.000000e+00)
(0.000000e+00 0.000000e+00 0.000000e+00)
(0.000000e+00 0.000000e+00 0.000000e+00)
(0.000000e+00 0.000000e+00 0.000000e+00)
(0.000000e+00 0.000000e+00 0.000000e+00)
(0.000000e+00 0.000000e+00 0.000000e+00)
(9.269664e+02 0.000000e+00 0.000000e+00)
(9.278847e+02 0.000000e+00 0.000000e+00)
(9.288115e+02 0.000000e+00 0.000000e+00)
(9.297469e+02 0.000000e+00 0.000000e+00)
(9.306912e+02 0.000000e+00 0.000000e+00)
(9.316445e+02 0.000000e+00 0.000000e+00)
(9.326069e+02 0.000000e+00 0.000000e+00)
(9.335786e+02 0.000000e+00 0.000000e+00)
(9.345598e+02 0.000000e+00 0.000000e+00)
(9.355506e+02 0.000000e+00 0.000000e+00)
(9.365513e+02 0.000000e+00 0.000000e+00)
(9.375619e+02 0.000000e+00 0.000000e+00)
(9.385827e+02 0.000000e+00 0.000000e+00)
(9.396139e+02 0.000000e+00 0.000000e+00)
(9.406556e+02 0.000000e+00 0.000000e+00)
(9.417081e+02 0.000000e+00 0.000000e+00)
(9.427716e+02 0.000000e+00 0.000000e+00)
(9.438464e+02 0.000000e+00 0.000000e+00)
(9.449325e+02 0.000000e+00 0.000000e+00)
(9.460303e+02 0.000000e+00 0.000000e+00)
(9.471400e+02 0.000000e+00 0.000000e+00)
(9.482619e+02 0.000000e+00 0.000000e+00)
(9.493961e+02 0.000000e+00 0.000000e+00)
(9.505430e+02 0.000000e+00 0.000000e+00)
(9.517029e+02 0.000000e+00 0.000000e+00)
(9.528759e+02 0.000000e+00 0.000000e+00)
(9.540625e+02 0.000000e+00 0.000000e+00)
(9.552629e+02 0.000000e+00 0.000000e+00)
(9.564774e+02 0.000000e+00 0.000000e+00)
(9.577064e+02 0.000000e+00 0.000000e+00)
(9.589501e+02 0.000000e+00 0.000000e+00)
(9.602090e+02 0.000000e+00 0.000000e+00)
(9.614834e+02 0.000000e+00 0.000000e+00)
(9.627736e+02 0.000000e+00 0.000000e+00)
(9.640801e+02 0.000000e+00 0.000000e+00)
(9.654033e+02 0.000000e+00 0.000000e+00)
(9.667435e+02 0.000000e+00 0.000000e+00)
(9.681013e+02 0.000000e+00 0.000000e+00)
(9.694771e+02 0.000000e+00 0.000000e+00)
(9.708713e+02 0.000000e+00 0.000000e+00)
(9.722845e+02 0.000000e+00 0.000000e+00)
(9.737171e+02 0.000000e+00 0.000000e+00)
(9.751698e+02 0.000000e+00 0.000000e+00)
(9.766430e+02 0.000000e+00 0.000000e+00)
(9.781374e+02 0.000000e+00 0.000000e+00)
(9.796536e+02 0.000000e+00 0.000000e+00)
(9.811923e+02 0.000000e+00 0.000000e+00)
(9.827540e+02 0.000000e+00 0.000000e+00)
(9.843395e+02 0.000000e+00 0.000000e+00)
(9.859496e+02 0.000000e+00 0.000000e+00)
(9.875850e+02 0.000000e+00 0.000000e+00)
(9.892466e+02 0.000000e+00 0.000000e+00)
(9.909353e+02 0.000000e+00 0.000000e+00)
(9.926518e+02 0.000000e+00 0.000000e+00)
(9.943972e+02 0.000000e+00 0.000000e+00)
(9.961726e+02 0.000000e+00 0.000000e+00)
(9.979789e+02 0.000000e+00 0.000000e+00)
(9.998173e+02 0.000000e+00 0.000000e+00)
(1.001689e+03 0.000000e+00 0.000000e+00)
(1.003595e+03 0.000000e+00 0.000000e+00)
(1.005537e+03 0.000000e+00 0.000000e+00)
(1.007517e+03 0.000000e+00 0.000000e+00)
(1.009535e+03 0.000000e+00 0.000000e+00)
(1.011594e+03 0.000000e+00 0.000000e+00)
(1.013694e+03 0.000000e+00 0.000000e+00)
(1.015839e+03 0.000000e+00 0.000000e+00)
(1.018030e+03 0.000000e+00 0.000000e+00)
(1.020269e+03 0.000000e+00 0.000000e+00)
(1.022558e+03 0.000000e+00 0.000000e+00)
(1.024900e+03 0.000000e+00 0.000000e+00)
(1.027297e+03 0.000000e+00 0.000000e+00)
(1.029752e+03 0.000000e+00 0.000000e+00)
(1.032269e+03 0.000000e+00 0.000000e+00)
(1.034850e+03 0.000000e+00 0.000000e+00)
(1.037499e+03 0.000000e+00 0.000000e+00)
(1.040220e+03 0.000000e+00 0.000000e+00)
(1.043017e+03 0.000000e+00 0.000000e+00)
(1.045895e+03 0.000000e+00 0.000000e+00)
(1.048859e+03 0.000000e+00 0.000000e+00)
(1.051914e+03 0.000000e+00 0.000000e+00)
(1.055067e+03 0.000000e+00 0.000000e+00)
(1.058325e+03 0.000000e+00 0.000000e+00)
(1.061696e+03 0.000000e+00 0.000000e+00)
(1.065187e+03 0.000000e+00 0.000000e+00)
(1.068808e+03 0.000000e+00 0.000000e+00)
(1.072571e+03 0.000000e+00 0.000000e+00)
(1.076487e+03 0.000000e+00 0.000000e+00)
(1.080571e+03 0.000000e+00 0.000000e+00)
(1.084838e+03 0.000000e+00 0.000000e+00)
(1.089307e+03 0.000000e+00 0.000000e+00)
(1.093999e+03 0.000000e+00 0.000000e+00)
(1.098940e+03 0.000000e+00 0.000000e+00)
(1.104159e+03 0.000000e+00 0.000000e+00)
(1.109692e+03 0.000000e+00 0.000000e+00)
(1.115583e+03 0.000000e+00 0.000000e+00)
(1.121883e+03 0.000000e+00 0.000000e+00)
(1.128659e+03 0.000000e+00 0.000000e+00)
(1.135995e+03 0.000000e+00 0.000000e+00)
(1.143999e+03 0.000000e+00 0.000000e+00)
(1.152815e+03 0.000000e+00 0.000000e+00)
(1.162643e+03 0.000000e+00 0.000000e+00)
(1.173764e+03 0.000000e+00 0.000000e+00)
(1.186589e+03 0.000000e+00 0.000000e+00)
(1.201523e+03 0.000000e+00 0.000000e+00)
(1.218542e+03 0.000000e+00 0.000000e+00)
(1.221982e+03 0.000000e+00 0.000000e+00)
(1.222076e+03 0.000000e+00 0.000000e+00)
(0.000000e+00 0.000000e+00 0.000000e+00)
(0.000000e+00 0.000000e+00 0.000000e+00)
(0.000000e+00 0.000000e+00 0.000000e+00)
(0.000000e+00 0.000000e+00 0.000000e+00)
(0.000000e+00 0.000000e+00 0.000000e+00)
(0.000000e+00 0.000000e+00 0.000000e+00)
(0.000000e+00 0.000000e+00 0.000000e+00)
(0.000000e+00 0.000000e+00 0.000000e+00)
(0.000000e+00 0.000000e+00 0.000000e+00)
(0.000000e+00 0.000000e+00 0.000000e+00)
(0.000000e+00 0.000000e+00 0.000000e+00)
(0.000000e+00 0.000000e+00 0.000000e+00)
(0.000000e+00 0.000000e+00 0.000000e+00)
(0.000000e+00 0.000000e+00 0.000000e+00)
(0.000000e+00 0.000000e+00 0.000000e+00)
(0.000000e+00 0.000000e+00 0.000000e+00)
(0.000000e+00 0.000000e+00 0.000000e+00)
(0.000000e+00 0.000000e+00 0.000000e+00)
(0.000000e+00 0.000000e+00 0.000000e+00)
(0.000000e+00 0.000000e+00 0.000000e+00)
(0.000000e+00 0.000000e+00 0.000000e+00)
(0.000000e+00 0.000000e+00 0.000000e+00)
(0.000000e+00 0.000000e+00 0.000000e+00)
(0.000000e+00 0.000000e+00 0.000000e+00)
(0.000000e+00 0.000000e+00 0.000000e+00)
(0.000000e+00 0.000000e+00 0.000000e+00)
(0.000000e+00 0.000000e+00 0.000000e+00)
(0.000000e+00 0.000000e+00 0.000000e+00)
(0.000000e+00 0.000000e+00 0.000000e+00)
(0.000000e+00 0.000000e+00 0.000000e+00)
(0.000000e+00 0.000000e+00 0.000000e+00)
(0.000000e+00 0.000000e+00 0.000000e+00)
(0.000000e+00 0.000000e+00 0.000000e+00)
(0.000000e+00 0.000000e+00 0.000000e+00)
(0.000000e+00 0.000000e+00 0.000000e+00)
(0.000000e+00 0.000000e+00 0.000000e+00)
(0.000000e+00 0.000000e+00 0.000000e+00)
(0.000000e+00 0.000000e+00 0.000000e+00)
(0.000000e+00 0.000000e+00 0.000000e+00)
(0.000000e+00 0.000000e+00 0.000000e+00)
(0.000000e+00 0.000000e+00 0.000000e+00)
(0.000000e+00 0.000000e+00 0.000000e+00)
(0.000000e+00 0.000000e+00 0.000000e+00)
(0.000000e+00 0.000000e+00 0.000000e+00)
(0.000000e+00 0.000000e+00 0.000000e+00)
(0.000000e+00 0.000000e+00 0.000000e+00)
(0.000000e+00 0.000000e+00 0.000000e+00)
(0.000000e+00 0.000000e+00 0.000000e+00)
(0.000000e+00 0.000000e+00 0.000000e+00)
(0.000000e+00 0.000000e+00 0.000000e+00)
(0.000000e+00 0.000000e+00 0.000000e+00)
(0.000000e+00 0.000000e+00 0.000000e+00)
(0.000000e+00 0.000000e+00 0.000000e+00)
(0.000000e+00 0.000000e+00 0.000000e+00)
(0.000000e+00 0.000000e+00 0.000000e+00)
(0.000000e+00 0.000000e+00 0.000000e+00)
(0.000000e+00 0.000000e+00 0.000000e+00)
(0.000000e+00 0.000000e+00 0.000000e+00)
(0.000000e+00 0.000000e+00 0.000000e+00)
(0.000000e+00 0.000000e+00 0.000000e+00)
(0.000000e+00 0.000000e+00 0.000000e+00)
(0.000000e+00 0.000000e+00 0.000000e+00)
(0.000000e+00 0.000000e+00 0.000000e+00)
(0.000000e+00 0.000000e+00 0.000000e+00)
(0.000000e+00 0.000000e+00 0.000000e+00)
(0.000000e+00 0.000000e+00 0.000000e+00)
(0.000000e+00 0.000000e+00 0.000000e+00)
(0.000000e+00 0.000000e+00 0.000000e+00)
(0.000000e+00 0.000000e+00 0.000000e+00)
(0.000000e+00 0.000000e+00 0.000000e+00)
(0.000000e+00 0.000000e+00 0.000000e+00)
(0.000000e+00 0.000000e+00 0.000000e+00)
(0.000000e+00 0.000000e+00 0.000000e+00)
(0.000000e+00 0.000000e+00 0.000000e+00)
(0.000000e+00 0.000000e+00 0.000000e+00)
(0.000000e+00 0.000000e+00 0.000000e+00)
(0.000000e+00 0.000000e+00 0.000000e+00)
(0.000000e+00 0.000000e+00 0.000000e+00)
(0.000000e+00 0.000000e+00 0.000000e+00)
(0.000000e+00 0.000000e+00 0.000000e+00)
(0.000000e+00 0.000000e+00 0.000000e+00)
(0.000000e+00 0.000000e+00 0.000000e+00)
(0.000000e+00 0.000000e+00 0.000000e+00)
(0.000000e+00 0.000000e+00 0.000000e+00)
(0.000000e+00 0.000000e+00 0.000000e+00)
(0.000000e+00 0.000000e+00 0.000000e+00)
(0.000000e+00 0.000000e+00 0.000000e+00)
(0.000000e+00 0.000000e+00 0.000000e+00)
(0.000000e+00 0.000000e+00 0.000000e+00)
(0.000000e+00 0.000000e+00 0.000000e+00)
(0.000000e+00 0.000000e+00 0.000000e+00)
(0.000000e+00 0.000000e+00 0.000000e+00)
(0.000000e+00 0.000000e+00 0.000000e+00)
(9.252995e+02 0.000000e+00 0.000000e+00)
(9.262025e+02 0.000000e+00 0.000000e+00)
(9.271137e+02 0.000000e+00 0.000000e+00)
(9.280333e+02 0.000000e+00 0.000000e+00)
(9.289615e+02 0.000000e+00 0.000000e+00)
(9.298984e+02 0.000000e+00 0.000000e+00)
(9.308441e+02 0.000000e+00 0.000000e+00)
(9.317988e+02 0.000000e+00 0.000000e+00)
(9.327627e+02 0.000000e+00 0.000000e+00)
(9.337360e+02 0.000000e+00 0.000000e+00)
(9.347187e+02 0.000000e+00 0.000000e+00)
(9.357111e+02 0.000000e+00 0.000000e+00)
(9.367133e+02 0.000000e+00 0.000000e+00)
(9.377255e+02 0.000000e+00 0.000000e+00)
(9.387480e+02 0.000000e+00 0.000000e+00)
(9.397809e+02 0.000000e+00 0.000000e+00)
(9.408243e+02 0.000000e+00 0.000000e+00)
(9.418786e+02 0.000000e+00 0.000000e+00)
(9.429439e+02 0.000000e+00 0.000000e+00)
(9.440205e+02 0.000000e+00 0.000000e+00)
(9.451085e+02 0.000000e+00 0.000000e+00)
(9.462082e+02 0.000000e+00 0.000000e+00)
(9.473198e+02 0.000000e+00 0.000000e+00)
(9.484436e+02 0.000000e+00 0.000000e+00)
(9.495799e+02 0.000000e+00 0.000000e+00)
(9.507289e+02 0.000000e+00 0.000000e+00)
(9.518908e+02 0.000000e+00 0.000000e+00)
(9.530661e+02 0.000000e+00 0.000000e+00)
(9.542548e+02 0.000000e+00 0.000000e+00)
(9.554575e+02 0.000000e+00 0.000000e+00)
(9.566743e+02 0.000000e+00 0.000000e+00)
(9.579056e+02 0.000000e+00 0.000000e+00)
(9.591518e+02 0.000000e+00 0.000000e+00)
(9.604131e+02 0.000000e+00 0.000000e+00)
(9.616900e+02 0.000000e+00 0.000000e+00)
(9.629829e+02 0.000000e+00 0.000000e+00)
(9.642920e+02 0.000000e+00 0.000000e+00)
(9.656179e+02 0.000000e+00 0.000000e+00)
(9.669610e+02 0.000000e+00 0.000000e+00)
(9.683216e+02 0.000000e+00 0.000000e+00)
(9.697003e+02 0.000000e+00 0.000000e+00)
(9.710975e+02 0.000000e+00 0.000000e+00)
(9.725138e+02 0.000000e+00 0.000000e+00)
(9.739497e+02 0.000000e+00 0.000000e+00)
(9.754056e+02 0.000000e+00 0.000000e+00)
(9.768822e+02 0.000000e+00 0.000000e+00)
(9.783801e+02 0.000000e+00 0.000000e+00)
(9.798998e+02 0.000000e+00 0.000000e+00)
(9.814421e+02 0.000000e+00 0.000000e+00)
(9.830076e+02 0.000000e+00 0.000000e+00)
(9.845971e+02 0.000000e+00 0.000000e+00)
(9.862112e+02 0.000000e+00 0.000000e+00)
(9.878508e+02 0.000000e+00 0.000000e+00)
(9.895167e+02 0.000000e+00 0.000000e+00)
(9.912097e+02 0.000000e+00 0.000000e+00)
(9.929308e+02 0.000000e+00 0.000000e+00)
(9.946810e+02 0.000000e+00 0.000000e+00)
(9.964613e+02 0.000000e+00 0.000000e+00)
(9.982727e+02 0.000000e+00 0.000000e+00)
(1.000116e+03 0.000000e+00 0.000000e+00)
(1.001993e+03 0.000000e+00 0.000000e+00)
(1.003905e+03 0.000000e+00 0.000000e+00)
(1.005853e+03 0.000000e+00 0.000000e+00)
(1.007839e+03 0.000000e+00 0.000000e+00)
(1.009864e+03 0.000000e+00 0.000000e+00)
(1.011929e+03 0.000000e+00 0.000000e+00)
(1.014037e+03 0.000000e+00 0.000000e+00)
(1.016189e+03 0.000000e+00 0.000000e+00)
(1.018387e+03 0.000000e+00 0.000000e+00)
(1.020634e+03 0.000000e+00 0.000000e+00)
(1.022931e+03 0.000000e+00 0.000000e+00)
(1.025282e+03 0.000000e+00 0.000000e+00)
(1.027688e+03 0.000000e+00 0.000000e+00)
(1.030153e+03 0.000000e+00 0.000000e+00)
(1.032680e+03 0.000000e+00 0.000000e+00)
(1.035271e+03 0.000000e+00 0.000000e+00)
(1.037932e+03 0.000000e+00 0.000000e+00)
(1.040665e+03 0.000000e+00 0.000000e+00)
(1.043474e+03 0.000000e+00 0.000000e+00)
(1.046366e+03 0.000000e+00 0.000000e+00)
(1.049344e+03 0.000000e+00 0.000000e+00)
(1.052415e+03 0.000000e+00 0.000000e+00)
(1.055585e+03 0.000000e+00 0.000000e+00)
(1.058860e+03 0.000000e+00 0.000000e+00)
(1.062249e+03 0.000000e+00 0.000000e+00)
(1.065761e+03 0.000000e+00 0.000000e+00)
(1.069404e+03 0.000000e+00 0.000000e+00)
(1.073191e+03 0.000000e+00 0.000000e+00)
(1.077133e+03 0.000000e+00 0.000000e+00)
(1.081245e+03 0.000000e+00 0.000000e+00)
(1.085543e+03 0.000000e+00 0.000000e+00)
(1.090047e+03 0.000000e+00 0.000000e+00)
(1.094777e+03 0.000000e+00 0.000000e+00)
(1.099761e+03 0.000000e+00 0.000000e+00)
(1.105028e+03 0.000000e+00 0.000000e+00)
(1.110615e+03 0.000000e+00 0.000000e+00)
(1.116568e+03 0.000000e+00 0.000000e+00)
(1.122940e+03 0.000000e+00 0.000000e+00)
(1.129800e+03 0.000000e+00 0.000000e+00)
(1.137235e+03 0.000000e+00 0.000000e+00)
(1.145359e+03 0.000000e+00 0.000000e+00)
(1.154323e+03 0.000000e+00 0.000000e+00)
(1.164337e+03 0.000000e+00 0.000000e+00)
(1.175701e+03 0.000000e+00 0.000000e+00)
(1.188845e+03 0.000000e+00 0.000000e+00)
(1.204233e+03 0.000000e+00 0.000000e+00)
(1.219914e+03 0.000000e+00 0.000000e+00)
(1.222034e+03 0.000000e+00 0.000000e+00)
(1.222072e+03 0.000000e+00 0.000000e+00)
(0.000000e+00 0.000000e+00 0.000000e+00)
(0.000000e+00 0.000000e+00 0.000000e+00)
(0.000000e+00 0.000000e+00 0.000000e+00)
(0.000000e+00 0.000000e+00 0.000000e+00)