/*--------------------------------*- C++ -*----------------------------------*\
  =========                 |
  \\      /  F ield         | OpenFOAM: The Open Source CFD Toolbox
   \\    /   O peration     | Website:  https://openfoam.org
    \\  /    A nd           | Version:  6
     \\/     M anipulation  |
\*---------------------------------------------------------------------------*/
FoamFile
{
    version     2.0;
    format      ascii;
    class       volScalarField;
    location    "0.0004225";
    object      H;
}
// * * * * * * * * * * * * * * * * * * * * * * * * * * * * * * * * * * * * * //

dimensions      [0 0 0 0 0 0 0];

internalField   nonuniform List<scalar> 
32000
(
1.37779372336e-05
1.37779345309e-05
1.37779315449e-05
1.37779302109e-05
1.37779276459e-05
1.37779237222e-05
1.37779218664e-05
1.37779201419e-05
1.37779159255e-05
1.37779109226e-05
1.37779067548e-05
1.37779055748e-05
1.37779035949e-05
1.37778983166e-05
1.37778893203e-05
1.37778784742e-05
1.37778715309e-05
1.37778690988e-05
1.37778687498e-05
1.37778675335e-05
1.37778640488e-05
1.37778572324e-05
1.37778493529e-05
1.37778396899e-05
1.37778339362e-05
1.37778308515e-05
1.37778275767e-05
1.37778240332e-05
1.37778166917e-05
1.37778054082e-05
1.37777942642e-05
1.37777882269e-05
1.37777856161e-05
1.37777805784e-05
1.3777773427e-05
1.37777597197e-05
1.37777439019e-05
1.37777292366e-05
1.37777188475e-05
1.37777134693e-05
1.3777710388e-05
1.3777699911e-05
1.37776874167e-05
1.37776757378e-05
1.3777668615e-05
1.37776656207e-05
1.37776628703e-05
1.37776576206e-05
1.37776469898e-05
1.37776318324e-05
1.37776135709e-05
1.37775867886e-05
1.37775570401e-05
1.37775327172e-05
1.37775055428e-05
1.37774922356e-05
1.37774833915e-05
1.37774793157e-05
1.37774752605e-05
1.37774647016e-05
1.37774523698e-05
1.37774373788e-05
1.3777424446e-05
1.37774048582e-05
1.37773940536e-05
1.37773746073e-05
1.37773558887e-05
1.37773424495e-05
1.37773170997e-05
1.37772945178e-05
1.37772769649e-05
1.37772503087e-05
1.37772327229e-05
1.37772222964e-05
1.37772173778e-05
1.37772101537e-05
1.37772051278e-05
1.37771903564e-05
1.37771728505e-05
1.37771495635e-05
1.37771243291e-05
1.37770854305e-05
1.37770590325e-05
1.37770453186e-05
1.37770377815e-05
1.37770300603e-05
1.37770196218e-05
1.37770091661e-05
1.37769798843e-05
1.37769608587e-05
1.37769288892e-05
1.37768921679e-05
1.37768318044e-05
1.37767964562e-05
1.37767668549e-05
1.37767408311e-05
1.37767256884e-05
1.37767032063e-05
1.3776692673e-05
1.37766877067e-05
1.37766865174e-05
1.37766794608e-05
1.37766588265e-05
1.37766380455e-05
1.37766194649e-05
1.37765982628e-05
1.37765561425e-05
1.37764957132e-05
1.37764421551e-05
1.37763947722e-05
1.37763315265e-05
1.37763010611e-05
1.37762543089e-05
1.37762255814e-05
1.37762085859e-05
1.37761857101e-05
1.37761762742e-05
1.37761621061e-05
1.3776152146e-05
1.37761376172e-05
1.37761223718e-05
1.37761074671e-05
1.37760861284e-05
1.37760616658e-05
1.37760414829e-05
1.37759976764e-05
1.37759621626e-05
1.37758954878e-05
1.37758281921e-05
1.37757989788e-05
1.37757758984e-05
1.37757631735e-05
1.37757545195e-05
1.37757420255e-05
1.37757157189e-05
1.37756697459e-05
1.37756384367e-05
1.37756042972e-05
1.37755449049e-05
1.37755115442e-05
1.37754658234e-05
1.37754304938e-05
1.37753598549e-05
1.37753336042e-05
1.37752901114e-05
1.37752585313e-05
1.37752416353e-05
1.37752063379e-05
1.37751838385e-05
1.37751682391e-05
1.37751466684e-05
1.37751180173e-05
1.37750988101e-05
1.37750759873e-05
1.37750590437e-05
1.37750249849e-05
1.37750047166e-05
1.37749698257e-05
1.3774950511e-05
1.37749122256e-05
1.37748566894e-05
1.37748226716e-05
1.37747796492e-05
1.37746779536e-05
1.37746010047e-05
1.37745146921e-05
1.37744277691e-05
1.37743588508e-05
1.3774282487e-05
1.37742432778e-05
1.37741967216e-05
1.37741507723e-05
1.37741357953e-05
1.37741076355e-05
1.3774082334e-05
1.37740724588e-05
1.37740549672e-05
1.37740489533e-05
1.37740438856e-05
1.37740236241e-05
1.3773991608e-05
1.37739455184e-05
1.37739103881e-05
1.37738592255e-05
1.3773817781e-05
1.3773760658e-05
1.37737081422e-05
1.37736295201e-05
1.37735671749e-05
1.37735273325e-05
1.37734547404e-05
1.37734219902e-05
1.37733714872e-05
1.37733347679e-05
1.37733142848e-05
1.37732751328e-05
1.37732472744e-05
1.37732097385e-05
1.37731946834e-05
1.377315954e-05
1.37731011115e-05
1.37730764644e-05
1.37730419788e-05
1.37729715429e-05
1.37728901544e-05
1.37728064011e-05
1.37726999969e-05
1.37726179604e-05
1.37724831388e-05
1.37724003348e-05
1.37723076223e-05
1.37722471857e-05
1.37721797959e-05
1.37721190276e-05
1.37720893267e-05
1.37720711563e-05
1.37720396224e-05
1.37720005407e-05
1.37719859293e-05
1.37719602395e-05
1.3771945533e-05
1.37719218229e-05
1.37719108602e-05
1.37718964711e-05
1.37718617737e-05
1.37718122649e-05
1.37717922146e-05
1.37717700505e-05
1.37716971488e-05
1.37716373024e-05
1.37716117495e-05
1.3771530463e-05
1.37713999932e-05
1.37713475586e-05
1.3771264638e-05
1.37711566084e-05
1.37710892931e-05
1.3771037816e-05
1.37709904286e-05
1.37709110379e-05
1.37708755078e-05
1.3770830798e-05
1.37708036395e-05
1.37707799933e-05
1.37707233679e-05
1.37706623076e-05
1.37706417536e-05
1.37705886359e-05
1.37705305789e-05
1.37704983954e-05
1.3770417206e-05
1.37703555048e-05
1.37703135463e-05
1.37701971532e-05
1.3770127149e-05
1.37700689779e-05
1.37699496019e-05
1.37698335798e-05
1.37697515228e-05
1.37696307513e-05
1.37695196413e-05
1.37694767388e-05
1.3769408316e-05
1.37693152391e-05
1.3769282465e-05
1.37692408119e-05
1.37691897737e-05
1.37691587236e-05
1.37691199425e-05
1.37690701778e-05
1.37690519263e-05
1.37690338799e-05
1.37689781443e-05
1.37688896442e-05
1.37688494463e-05
1.37688308612e-05
1.37687735566e-05
1.37686688322e-05
1.37686028109e-05
1.37685766564e-05
1.37684911524e-05
1.37683540492e-05
1.37683044244e-05
1.37682546385e-05
1.37681696124e-05
1.3768064334e-05
1.37679774745e-05
1.37679212964e-05
1.37678595448e-05
1.37677789586e-05
1.37677194709e-05
1.37676853037e-05
1.37676397719e-05
1.37675568635e-05
1.37674761757e-05
1.37674037205e-05
1.37673781731e-05
1.37673112567e-05
1.37672069605e-05
1.37671635482e-05
1.37670681139e-05
1.37670110997e-05
1.37669560002e-05
1.37668379633e-05
1.37667326503e-05
1.37666822014e-05
1.37665705547e-05
1.37664684911e-05
1.37663975371e-05
1.37663272026e-05
1.3766289e-05
1.37662351636e-05
1.37661417782e-05
1.37660811713e-05
1.37660452518e-05
1.37659707073e-05
1.37659410258e-05
1.37658966091e-05
1.37657933523e-05
1.37657090525e-05
1.3765685432e-05
1.3765650156e-05
1.3765552294e-05
1.37654270362e-05
1.37653839574e-05
1.37653440338e-05
1.37652603142e-05
1.37651381161e-05
1.37650457396e-05
1.376499835e-05
1.37649246151e-05
1.37648125804e-05
1.37646872624e-05
1.37645636187e-05
1.37644835393e-05
1.37644321249e-05
1.37643685071e-05
1.37642310124e-05
1.37641001585e-05
1.3763989208e-05
1.376385847e-05
1.37637776183e-05
1.37637366414e-05
1.37636864249e-05
1.37635704278e-05
1.37634638208e-05
1.37634126358e-05
1.37633546741e-05
1.37632616828e-05
1.3763192233e-05
1.37631696442e-05
1.37631200975e-05
1.37630290619e-05
1.37629735185e-05
1.37629521976e-05
1.37629081333e-05
1.37628323944e-05
1.37627644819e-05
1.37627340219e-05
1.37626784838e-05
1.37625745279e-05
1.37625116916e-05
1.37624413816e-05
1.37623600151e-05
1.37623149773e-05
1.37622280138e-05
1.37621012554e-05
1.3762010726e-05
1.37619473776e-05
1.37618544618e-05
1.37617750984e-05
1.37616995358e-05
1.37616448664e-05
1.37615699035e-05
1.37614670652e-05
1.37613751665e-05
1.37612903923e-05
1.37612255798e-05
1.37611744406e-05
1.37610978097e-05
1.37609652104e-05
1.37608144081e-05
1.37607073602e-05
1.37606635281e-05
1.37606154664e-05
1.37604867042e-05
1.37603014536e-05
1.37601705792e-05
1.37601013829e-05
1.37600289008e-05
1.37598928183e-05
1.37597793574e-05
1.37596898788e-05
1.3759577625e-05
1.37594140961e-05
1.37592977411e-05
1.37592010859e-05
1.3759106928e-05
1.37589963221e-05
1.37588948433e-05
1.37588161804e-05
1.37587842861e-05
1.37586975835e-05
1.37585548871e-05
1.37584688416e-05
1.37584372397e-05
1.37583700086e-05
1.37582385041e-05
1.37581168431e-05
1.37580039309e-05
1.37579061521e-05
1.37578456884e-05
1.37578036462e-05
1.37577464367e-05
1.3757631601e-05
1.37574844132e-05
1.37573796136e-05
1.37573297337e-05
1.3757290759e-05
1.37571996389e-05
1.37571045125e-05
1.37570397026e-05
1.3757008751e-05
1.3756971255e-05
1.3756938945e-05
1.37568598474e-05
1.3756741711e-05
1.37566660679e-05
1.3756645592e-05
1.37566171324e-05
1.37565462648e-05
1.37564344806e-05
1.37563210424e-05
1.37562097924e-05
1.37561125983e-05
1.3756005444e-05
1.37558571077e-05
1.37557233072e-05
1.37556183628e-05
1.37553528975e-05
1.37551103478e-05
1.37550354065e-05
1.37549302106e-05
1.37547860431e-05
1.37546747843e-05
1.37546318293e-05
1.37545797567e-05
1.37544775401e-05
1.37543559384e-05
1.37542632299e-05
1.37541957252e-05
1.37541511054e-05
1.37541211595e-05
1.37540847341e-05
1.37540386387e-05
1.37539679586e-05
1.37538762774e-05
1.37537646843e-05
1.37536664661e-05
1.37535584253e-05
1.37534748525e-05
1.37533736863e-05
1.37532851829e-05
1.37531494584e-05
1.37529863328e-05
1.37528698076e-05
1.37527040165e-05
1.37525106307e-05
1.37524363893e-05
1.37523291486e-05
1.37521838041e-05
1.37520407643e-05
1.37519323065e-05
1.37518487783e-05
1.37517880742e-05
1.37517247095e-05
1.37516120853e-05
1.37514452289e-05
1.37513199333e-05
1.3751210332e-05
1.37511436318e-05
1.37510898925e-05
1.37509329679e-05
1.37508110598e-05
1.3750749239e-05
1.37506398879e-05
1.37505275818e-05
1.37503931432e-05
1.37502157879e-05
1.37500734594e-05
1.37499719259e-05
1.37497691707e-05
1.37494131014e-05
1.37492786826e-05
1.37491951548e-05
1.37490973637e-05
1.37490324339e-05
1.3748933033e-05
1.37488023333e-05
1.37486797885e-05
1.37485794641e-05
1.37485206369e-05
1.37484879006e-05
1.37484294074e-05
1.37483697857e-05
1.37483434351e-05
1.37483023413e-05
1.37482519243e-05
1.37481722203e-05
1.37480818504e-05
1.37479804731e-05
1.37479172625e-05
1.37478764496e-05
1.37478056391e-05
1.37477222674e-05
1.37476004685e-05
1.37474396404e-05
1.37473255646e-05
1.37472644288e-05
1.37472066693e-05
1.37470728675e-05
1.37468828247e-05
1.37467526009e-05
1.37466408726e-05
1.37463614303e-05
1.37461792849e-05
1.37460939905e-05
1.37459491139e-05
1.37457739249e-05
1.37456495813e-05
1.37455256334e-05
1.37452109525e-05
1.37449146968e-05
1.37448294716e-05
1.37447326603e-05
1.3744662523e-05
1.374459123e-05
1.37444354426e-05
1.37443050948e-05
1.37442297909e-05
1.3744191526e-05
1.37441035717e-05
1.37439005916e-05
1.37437791603e-05
1.37436740864e-05
1.37435678159e-05
1.37434360477e-05
1.37432720962e-05
1.37431430655e-05
1.37430258918e-05
1.37429198009e-05
1.37428712643e-05
1.37428112103e-05
1.37426459561e-05
1.37424853423e-05
1.37423691003e-05
1.37423199289e-05
1.37422626747e-05
1.37420725683e-05
1.37419077386e-05
1.37418028564e-05
1.3741656889e-05
1.37415289941e-05
1.37413970874e-05
1.37412711928e-05
1.37411229213e-05
1.37409643027e-05
1.37408401628e-05
1.37406935797e-05
1.37405686953e-05
1.37402749877e-05
1.37401398919e-05
1.37400282948e-05
1.37399140287e-05
1.37397789312e-05
1.37396881126e-05
1.37396303302e-05
1.37395310943e-05
1.37393511203e-05
1.37392110709e-05
1.37391155732e-05
1.37390360743e-05
1.37389519093e-05
1.37388570817e-05
1.37386582703e-05
1.37385691488e-05
1.37384147209e-05
1.37383150066e-05
1.3738212877e-05
1.37380862329e-05
1.37379282835e-05
1.37377549405e-05
1.37376597598e-05
1.37375042698e-05
1.37373618222e-05
1.37372275877e-05
1.37371091764e-05
1.37370439614e-05
1.37368750676e-05
1.37367035891e-05
1.37365951638e-05
1.37364232153e-05
1.37363288495e-05
1.3736206949e-05
1.37360716933e-05
1.37359560545e-05
1.37357344286e-05
1.37354130736e-05
1.37351560574e-05
1.3734969371e-05
1.37346986012e-05
1.37345915e-05
1.37345139853e-05
1.37343902834e-05
1.3734265959e-05
1.37341250489e-05
1.37340079855e-05
1.37339243165e-05
1.37338078981e-05
1.37337292061e-05
1.37336485107e-05
1.37335937818e-05
1.37334761631e-05
1.37333334871e-05
1.37331742241e-05
1.3733064713e-05
1.37329502689e-05
1.37328486005e-05
1.37327316725e-05
1.37325641534e-05
1.37324062828e-05
1.37322611987e-05
1.37321312743e-05
1.37320450206e-05
1.37318946238e-05
1.37316748388e-05
1.3731455815e-05
1.3731240984e-05
1.37310504802e-05
1.37308378776e-05
1.37305475668e-05
1.37302254591e-05
1.37301069868e-05
1.37300334256e-05
1.3729920731e-05
1.37298157754e-05
1.37297300718e-05
1.37296617284e-05
1.3729536218e-05
1.37293736311e-05
1.37292549638e-05
1.37291219214e-05
1.37289499021e-05
1.3728795871e-05
1.37286698478e-05
1.37285953682e-05
1.37285106479e-05
1.37284261494e-05
1.3728328367e-05
1.37281649235e-05
1.37279880359e-05
1.37278252628e-05
1.37277288259e-05
1.37275912363e-05
1.37272802381e-05
1.37268637387e-05
1.37265205728e-05
1.37263727458e-05
1.37262714813e-05
1.37261534425e-05
1.37260681097e-05
1.37259899855e-05
1.37258590183e-05
1.37256772896e-05
1.37255721045e-05
1.37254559629e-05
1.3725327214e-05
1.37251785362e-05
1.37250307665e-05
1.37248662895e-05
1.37247385411e-05
1.3724585261e-05
1.37244343577e-05
1.37242829044e-05
1.3724130325e-05
1.37239883315e-05
1.37239108546e-05
1.37237589141e-05
1.37234504002e-05
1.3723168576e-05
1.3722989152e-05
1.37228522924e-05
1.37227478806e-05
1.37225843716e-05
1.37222873676e-05
1.37220949302e-05
1.37220149274e-05
1.37219047672e-05
1.37218320788e-05
1.37216607392e-05
1.37215134628e-05
1.37214383729e-05
1.37213035564e-05
1.37212172614e-05
1.37211183496e-05
1.37210103911e-05
1.37209274485e-05
1.3720796389e-05
1.37206165497e-05
1.37205043088e-05
1.37203614514e-05
1.37202308013e-05
1.37201206219e-05
1.37199949966e-05
1.37198362637e-05
1.37196785094e-05
1.37195259095e-05
1.37194071995e-05
1.37193187284e-05
1.37191287655e-05
1.37188284191e-05
1.3718497837e-05
1.37181735198e-05
1.37178616046e-05
1.37175662608e-05
1.3717257412e-05
1.37170749093e-05
1.37169994983e-05
1.37169035237e-05
1.37167873905e-05
1.37165029354e-05
1.37163229353e-05
1.37162495821e-05
1.37161457263e-05
1.37159911031e-05
1.37158156334e-05
1.37156621028e-05
1.37155365287e-05
1.37154443498e-05
1.37151951272e-05
1.37148678232e-05
1.37147527867e-05
1.37146534524e-05
1.37144806483e-05
1.37143738123e-05
1.37142714397e-05
1.3714048334e-05
1.37137638631e-05
1.37135059602e-05
1.37133152659e-05
1.37132390566e-05
1.37130866527e-05
1.37129841058e-05
1.3712864644e-05
1.37126549421e-05
1.37124276717e-05
1.37122175244e-05
1.3712019501e-05
1.37118204682e-05
1.37116263197e-05
1.37114355298e-05
1.37112270299e-05
1.37109733764e-05
1.37106877138e-05
1.37103962622e-05
1.37100737085e-05
1.37099141703e-05
1.37098655546e-05
1.37097836107e-05
1.37096530073e-05
1.37094627293e-05
1.37093249545e-05
1.37091954255e-05
1.37090785823e-05
1.37090324934e-05
1.37089363369e-05
1.37087784055e-05
1.37085904872e-05
1.37084381562e-05
1.37083536727e-05
1.37081845361e-05
1.37078854054e-05
1.37076091351e-05
1.37075282215e-05
1.3707428546e-05
1.37073537063e-05
1.37072848989e-05
1.3707160635e-05
1.37069842105e-05
1.37068330733e-05
1.3706723948e-05
1.37065161602e-05
1.37064222084e-05
1.37062672932e-05
1.37060944004e-05
1.37060113038e-05
1.37058834091e-05
1.37056235115e-05
1.37052696735e-05
1.37049440745e-05
1.37047068531e-05
1.37044979772e-05
1.37042952909e-05
1.3704091175e-05
1.37038672179e-05
1.37036868662e-05
1.37035178476e-05
1.37033611456e-05
1.37031969565e-05
1.37030183925e-05
1.37028103619e-05
1.37025758665e-05
1.37023355304e-05
1.37021077366e-05
1.37018841256e-05
1.37016575466e-05
1.37014206479e-05
1.37011891556e-05
1.37009645522e-05
1.37006906108e-05
1.3700436557e-05
1.37002171187e-05
1.37000384255e-05
1.36998696464e-05
1.3699708863e-05
1.36995109704e-05
1.36992264694e-05
1.36990576285e-05
1.36989936073e-05
1.3698878488e-05
1.36986890136e-05
1.36985071653e-05
1.36983958268e-05
1.36983047229e-05
1.36981645993e-05
1.36980315387e-05
1.36979072419e-05
1.3697733365e-05
1.36975946333e-05
1.36974367978e-05
1.36972932359e-05
1.36972111888e-05
1.36970569843e-05
1.36967976186e-05
1.36965308626e-05
1.36963004097e-05
1.36960446248e-05
1.36958177571e-05
1.36955414828e-05
1.3695249688e-05
1.36949792823e-05
1.36947639092e-05
1.36945714335e-05
1.36944073904e-05
1.36942232961e-05
1.36940271737e-05
1.36938256777e-05
1.36935902416e-05
1.36933279569e-05
1.36930812336e-05
1.36929014801e-05
1.36927528936e-05
1.36925904852e-05
1.36924067365e-05
1.36923084404e-05
1.3692197895e-05
1.36920123965e-05
1.36917441159e-05
1.36914165244e-05
1.36911054058e-05
1.36908686412e-05
1.36906937857e-05
1.36905506689e-05
1.36904183607e-05
1.3690295247e-05
1.36901323667e-05
1.3689925019e-05
1.36896926404e-05
1.36894254472e-05
1.36891079094e-05
1.36888506998e-05
1.36887820808e-05
1.36886945085e-05
1.3688585487e-05
1.36884358519e-05
1.36882633954e-05
1.36881083056e-05
1.36879897771e-05
1.36879107318e-05
1.36877392081e-05
1.36874508608e-05
1.36871575581e-05
1.36869099765e-05
1.36866724083e-05
1.36864468065e-05
1.36862387735e-05
1.36860204154e-05
1.36857555815e-05
1.36854373827e-05
1.36851200032e-05
1.36848374329e-05
1.36845780911e-05
1.36843256529e-05
1.36840499497e-05
1.36838305982e-05
1.36836373788e-05
1.36835569258e-05
1.36834413361e-05
1.36832824314e-05
1.36831213221e-05
1.36829862745e-05
1.36828957916e-05
1.36827350284e-05
1.36824950795e-05
1.36822548383e-05
1.36819823177e-05
1.36818086319e-05
1.36817378024e-05
1.36816108543e-05
1.36814445169e-05
1.36812732688e-05
1.36811692076e-05
1.36810634294e-05
1.36808446185e-05
1.36805329705e-05
1.36802041034e-05
1.36798700823e-05
1.36796259431e-05
1.36794639127e-05
1.36788225431e-05
1.36781891385e-05
1.36779378549e-05
1.36776551229e-05
1.36773709682e-05
1.36770799773e-05
1.36767992078e-05
1.36765359323e-05
1.36762752428e-05
1.36760484291e-05
1.36758352069e-05
1.3675661988e-05
1.36754491015e-05
1.36751542963e-05
1.3675035657e-05
1.36749668166e-05
1.36748795897e-05
1.36747636858e-05
1.36746445977e-05
1.36745413716e-05
1.36744458278e-05
1.36743408375e-05
1.36742037546e-05
1.36740262049e-05
1.36738725744e-05
1.36737509823e-05
1.36736353232e-05
1.36735186595e-05
1.3673396958e-05
1.36732913394e-05
1.36732001198e-05
1.36730881773e-05
1.36729525182e-05
1.36727960765e-05
1.3672625256e-05
1.36724497268e-05
1.36722878562e-05
1.36721849123e-05
1.36720599962e-05
1.36717866259e-05
1.36714665298e-05
1.3671268447e-05
1.36708582787e-05
1.36701986205e-05
1.36693948984e-05
1.36686746647e-05
1.36684695205e-05
1.36682637419e-05
1.36680422368e-05
1.36677634634e-05
1.36675740239e-05
1.3667510594e-05
1.36674211527e-05
1.36672686638e-05
1.36671139385e-05
1.36669280903e-05
1.36667943424e-05
1.36666307242e-05
1.36664621051e-05
1.36663707524e-05
1.36662551105e-05
1.36661138472e-05
1.36659924428e-05
1.36658469501e-05
1.36656155712e-05
1.36653380554e-05
1.36651662725e-05
1.36649252299e-05
1.36642994607e-05
1.3663398056e-05
1.36631094008e-05
1.36628803077e-05
1.36626533677e-05
1.36625575681e-05
1.36624658095e-05
1.36624118707e-05
1.36623019202e-05
1.36621241573e-05
1.36619521163e-05
1.3661890571e-05
1.36617958321e-05
1.36616387929e-05
1.36614872889e-05
1.36614335265e-05
1.36613833535e-05
1.3661297493e-05
1.36611454971e-05
1.3660937374e-05
1.36607317159e-05
1.36605514849e-05
1.36604171691e-05
1.36603118116e-05
1.36600913046e-05
1.36598766462e-05
1.36595720828e-05
1.36590586743e-05
1.36584067353e-05
1.36577722814e-05
1.36572175747e-05
1.36567136349e-05
1.36562816744e-05
1.36556710584e-05
1.3655399958e-05
1.36551969163e-05
1.3654990819e-05
1.36547398731e-05
1.36545229464e-05
1.36544384479e-05
1.3654317156e-05
1.36541652226e-05
1.36540680067e-05
1.36539374107e-05
1.36537676709e-05
1.36536239442e-05
1.36534818635e-05
1.36533382268e-05
1.36532034177e-05
1.36530723653e-05
1.36529432187e-05
1.36528085602e-05
1.36526614713e-05
1.36525031189e-05
1.36523370029e-05
1.36521675508e-05
1.36519950401e-05
1.36518234335e-05
1.36516638573e-05
1.36515371173e-05
1.36514074933e-05
1.36511906264e-05
1.36509307573e-05
1.36504944615e-05
1.36499717688e-05
1.36495119045e-05
1.36491434736e-05
1.36487827669e-05
1.36484301543e-05
1.36481091272e-05
1.36478097279e-05
1.36473415101e-05
1.36470638833e-05
1.36468156674e-05
1.36465591967e-05
1.36464548538e-05
1.36463468729e-05
1.36462197551e-05
1.36460910837e-05
1.36459650324e-05
1.36458207819e-05
1.36456492031e-05
1.36454965813e-05
1.36453608976e-05
1.36452204666e-05
1.36450703536e-05
1.36449137873e-05
1.36447555853e-05
1.36445949733e-05
1.36444357383e-05
1.36442822251e-05
1.36441492668e-05
1.36439089816e-05
1.36434866189e-05
1.36429378078e-05
1.36423607726e-05
1.36418398449e-05
1.36413747478e-05
1.36409602275e-05
1.36406176877e-05
1.36403241599e-05
1.36400944116e-05
1.36398877704e-05
1.36397070906e-05
1.36395151682e-05
1.36391264966e-05
1.36386322824e-05
1.3638479156e-05
1.36383678977e-05
1.36382592313e-05
1.36381250999e-05
1.36379655912e-05
1.36377929479e-05
1.36376256139e-05
1.36374818935e-05
1.36373490611e-05
1.36372007589e-05
1.36370091773e-05
1.36367043934e-05
1.36365099647e-05
1.36363321699e-05
1.36361722783e-05
1.3636020109e-05
1.363589847e-05
1.36357598411e-05
1.36356251859e-05
1.36354672638e-05
1.36352937967e-05
1.3635120035e-05
1.36349412221e-05
1.36347488362e-05
1.36345909895e-05
1.36343515714e-05
1.36339293101e-05
1.36333538133e-05
1.36329844719e-05
1.36325312937e-05
1.36323203118e-05
1.36321295403e-05
1.36319506321e-05
1.36318036628e-05
1.36316743676e-05
1.36315415047e-05
1.3631371911e-05
1.36311834487e-05
1.36309971388e-05
1.36308144771e-05
1.36306338846e-05
1.3630459308e-05
1.36302171928e-05
1.36298673777e-05
1.36293669532e-05
1.36289746012e-05
1.36286658175e-05
1.36283549663e-05
1.36280602335e-05
1.36277413675e-05
1.36273944241e-05
1.36270497166e-05
1.36267078892e-05
1.36263465319e-05
1.36259464142e-05
1.36254932547e-05
1.36249951743e-05
1.3624507203e-05
1.36240720662e-05
1.36236910634e-05
1.36231255795e-05
1.36228579409e-05
1.3622646548e-05
1.36225291106e-05
1.36224052962e-05
1.36222426921e-05
1.36220548765e-05
1.36218958882e-05
1.36217642104e-05
1.36216494038e-05
1.36215247772e-05
1.36213538889e-05
1.36212007572e-05
1.3620897211e-05
1.36205293726e-05
1.36202930027e-05
1.36200694646e-05
1.36199500791e-05
1.36198105315e-05
1.36195370105e-05
1.36192030072e-05
1.36190631894e-05
1.36189412193e-05
1.36187831423e-05
1.36185293027e-05
1.36182009099e-05
1.36180551873e-05
1.3617951709e-05
1.36178409348e-05
1.36177107853e-05
1.36175660349e-05
1.36174286051e-05
1.36173033788e-05
1.36171594885e-05
1.36169966136e-05
1.36168502821e-05
1.36167205461e-05
1.36165818288e-05
1.36164329846e-05
1.36162802528e-05
1.36161398647e-05
1.36159890722e-05
1.36157403987e-05
1.36154699846e-05
1.36152077542e-05
1.3614682801e-05
1.36140647941e-05
1.36135577613e-05
1.3613119047e-05
1.36127250728e-05
1.36123861025e-05
1.36120107028e-05
1.36116769096e-05
1.36112694821e-05
1.36108075215e-05
1.36105050319e-05
1.36102166172e-05
1.36098882541e-05
1.36095784654e-05
1.36092434061e-05
1.3608907838e-05
1.36084866347e-05
1.36081787067e-05
1.36079138902e-05
1.36076793614e-05
1.36074604671e-05
1.3607251092e-05
1.36070598074e-05
1.36068768361e-05
1.36066930944e-05
1.36065009344e-05
1.3606306371e-05
1.36060601083e-05
1.36058213524e-05
1.36056174593e-05
1.36053994817e-05
1.3605148009e-05
1.36049121271e-05
1.36046851324e-05
1.36044552911e-05
1.36042381543e-05
1.36040106631e-05
1.3603768147e-05
1.36034898306e-05
1.36031752867e-05
1.36028781253e-05
1.36025815449e-05
1.36022752386e-05
1.36019170375e-05
1.36014547458e-05
1.36009499399e-05
1.36004787292e-05
1.35997014899e-05
1.3599362234e-05
1.35991135825e-05
1.35988639002e-05
1.35985615036e-05
1.35982346199e-05
1.35979190228e-05
1.35975724671e-05
1.35972886098e-05
1.35970507889e-05
1.35968380813e-05
1.3596648774e-05
1.35964817579e-05
1.35963689758e-05
1.35962858831e-05
1.35961920639e-05
1.359610241e-05
1.35959694512e-05
1.35957998527e-05
1.35956312901e-05
1.35954877291e-05
1.35953670742e-05
1.35952596349e-05
1.35951592581e-05
1.35950774994e-05
1.35949927325e-05
1.35949015576e-05
1.35947989811e-05
1.35946755778e-05
1.35945286496e-05
1.35943538519e-05
1.35941294785e-05
1.35938622278e-05
1.35936173285e-05
1.35933960894e-05
1.35931620023e-05
1.35929234442e-05
1.35926911982e-05
1.359244486e-05
1.35921823078e-05
1.35919087574e-05
1.35916396349e-05
1.35913784834e-05
1.35910821089e-05
1.35906809854e-05
1.35901311862e-05
1.3589565066e-05
1.35890861949e-05
1.35885573381e-05
1.35880347076e-05
1.35875747026e-05
1.35869611438e-05
1.35865063844e-05
1.35861025019e-05
1.35857060759e-05
1.35853081439e-05
1.35850004701e-05
1.35845010498e-05
1.35840847396e-05
1.35838136243e-05
1.35835454415e-05
1.35832399339e-05
1.35829172469e-05
1.35825905582e-05
1.35822272565e-05
1.35819128935e-05
1.35816644818e-05
1.35814671868e-05
1.35813060211e-05
1.35811609431e-05
1.35810200353e-05
1.35808806196e-05
1.35807203539e-05
1.35805480287e-05
1.35804224995e-05
1.35803266875e-05
1.35802276332e-05
1.35801141943e-05
1.35799834518e-05
1.35798252972e-05
1.35796543353e-05
1.35795278018e-05
1.35794582937e-05
1.35794068933e-05
1.35793801908e-05
1.35793235546e-05
1.35791869305e-05
1.35789580093e-05
1.35786756811e-05
1.35784295892e-05
1.35783561047e-05
1.35782810705e-05
1.35782134355e-05
1.35780876857e-05
1.35778977078e-05
1.35776826192e-05
1.35774331143e-05
1.35771516047e-05
1.35768031868e-05
1.35765001031e-05
1.35762047129e-05
1.35758002016e-05
1.35754174575e-05
1.35748516947e-05
1.35738829031e-05
1.35730112908e-05
1.35726604214e-05
1.35720157605e-05
1.35714574391e-05
1.35709513761e-05
1.35702531307e-05
1.35697254003e-05
1.35692837147e-05
1.35689045681e-05
1.35686187726e-05
1.356838459e-05
1.3568163689e-05
1.356787856e-05
1.35675463898e-05
1.35672625209e-05
1.35670300831e-05
1.3566826777e-05
1.35666531869e-05
1.35664673886e-05
1.35662816616e-05
1.35660812353e-05
1.35658690069e-05
1.35656432109e-05
1.35654062891e-05
1.35651778695e-05
1.35649685432e-05
1.3564757176e-05
1.35645160486e-05
1.35642629793e-05
1.35640217897e-05
1.35637835007e-05
1.35635352347e-05
1.35632563469e-05
1.35629418663e-05
1.3562623357e-05
1.35623126211e-05
1.35620113417e-05
1.3561708178e-05
1.35613887567e-05
1.35610220597e-05
1.35605917569e-05
1.3560119505e-05
1.35596892879e-05
1.35590602727e-05
1.35584982888e-05
1.35579763748e-05
1.35573928813e-05
1.35568677709e-05
1.35564360014e-05
1.35559507209e-05
1.35556159584e-05
1.35553610306e-05
1.35551583226e-05
1.35549609545e-05
1.35547741719e-05
1.35545828473e-05
1.35544122406e-05
1.35542752858e-05
1.35541938872e-05
1.3554139023e-05
1.35541176684e-05
1.35540595697e-05
1.35539283323e-05
1.35536943699e-05
1.35535554126e-05
1.35534593144e-05
1.35533812916e-05
1.35533084063e-05
1.35532282489e-05
1.35531367866e-05
1.35529397877e-05
1.35526706382e-05
1.35523115246e-05
1.35518762015e-05
1.35513490492e-05
1.35510336477e-05
1.35502550589e-05
1.35488954337e-05
1.3547992594e-05
1.35476363188e-05
1.35472740067e-05
1.35470146972e-05
1.35468678103e-05
1.35466901336e-05
1.35465495858e-05
1.35463212742e-05
1.35461837359e-05
1.35460684115e-05
1.35459795145e-05
1.35458800894e-05
1.35457886275e-05
1.35456558327e-05
1.35455084945e-05
1.35453448946e-05
1.35452687925e-05
1.354520222e-05
1.35451370505e-05
1.35450624074e-05
1.35449833401e-05
1.35448261664e-05
1.35446442216e-05
1.35444100336e-05
1.35441399624e-05
1.35439002438e-05
1.35436433833e-05
1.35433540337e-05
1.35430264866e-05
1.35425018456e-05
1.35420880343e-05
1.35416938812e-05
1.35406856449e-05
1.35395885644e-05
1.35390459447e-05
1.35387019057e-05
1.35382518935e-05
1.35377788435e-05
1.35374094221e-05
1.35370274818e-05
1.35367273166e-05
1.35364320956e-05
1.35361877618e-05
1.35359787657e-05
1.35358023786e-05
1.35356034893e-05
1.35353865284e-05
1.35351245434e-05
1.3534875073e-05
1.35346274752e-05
1.35343691513e-05
1.35341048123e-05
1.35338334019e-05
1.35335433567e-05
1.35332332794e-05
1.35329733703e-05
1.35327267027e-05
1.35324008542e-05
1.35321178138e-05
1.35317789715e-05
1.35314867829e-05
1.35312150866e-05
1.35306238439e-05
1.35300947103e-05
1.35295688793e-05
1.35290947293e-05
1.35286866625e-05
1.35282754551e-05
1.35278495274e-05
1.35274961946e-05
1.35271825487e-05
1.35268526314e-05
1.3526388753e-05
1.3525966024e-05
1.35256373396e-05
1.35253130573e-05
1.35249801753e-05
1.35245767684e-05
1.35241837088e-05
1.3523824617e-05
1.35235090708e-05
1.35231813727e-05
1.35228843318e-05
1.35225956604e-05
1.35222975949e-05
1.35219541138e-05
1.35216073415e-05
1.35212797874e-05
1.35210066022e-05
1.35207768087e-05
1.35205683263e-05
1.3520352286e-05
1.35201042615e-05
1.35198085962e-05
1.35194880694e-05
1.35191748364e-05
1.35188877583e-05
1.35186293317e-05
1.35183636562e-05
1.35180672824e-05
1.35177268292e-05
1.35173873664e-05
1.35169239253e-05
1.35164768921e-05
1.35160704036e-05
1.35157396363e-05
1.35154247584e-05
1.35151524684e-05
1.35147449471e-05
1.35141801967e-05
1.35137545713e-05
1.35133466936e-05
1.35128838573e-05
1.35123009254e-05
1.35117548734e-05
1.35111483619e-05
1.35104816388e-05
1.35101023332e-05
1.35097568937e-05
1.35093390943e-05
1.35088711807e-05
1.35084898727e-05
1.35080846135e-05
1.35076300696e-05
1.35072550724e-05
1.35069483693e-05
1.35066719867e-05
1.35064127627e-05
1.35061686118e-05
1.35059122055e-05
1.35056255826e-05
1.35053145709e-05
1.35050402213e-05
1.35048324064e-05
1.3504642127e-05
1.35045006403e-05
1.35044008954e-05
1.35043038754e-05
1.35041783607e-05
1.35040311856e-05
1.35038562357e-05
1.3503674309e-05
1.35034931286e-05
1.35033193264e-05
1.35031602063e-05
1.35029886218e-05
1.35028128806e-05
1.35026031753e-05
1.35023455066e-05
1.35020908652e-05
1.35017796564e-05
1.35014864203e-05
1.35012056791e-05
1.35006944923e-05
1.35002504276e-05
1.34998174971e-05
1.34993752321e-05
1.34988972662e-05
1.34983444774e-05
1.34976546183e-05
1.34969847003e-05
1.34964279672e-05
1.3495937249e-05
1.34954542948e-05
1.34947549136e-05
1.34936194775e-05
1.34926490768e-05
1.34920546662e-05
1.34915381064e-05
1.34910148096e-05
1.34905308571e-05
1.34900956922e-05
1.3489640444e-05
1.34892227735e-05
1.34888623307e-05
1.34884152627e-05
1.34881059349e-05
1.34878573847e-05
1.34875767652e-05
1.34872542934e-05
1.34869530185e-05
1.34866599848e-05
1.34863794106e-05
1.34861451972e-05
1.34859179786e-05
1.34857708339e-05
1.34856730159e-05
1.34856090479e-05
1.34855078903e-05
1.34853467039e-05
1.34850960596e-05
1.34847608445e-05
1.34844658952e-05
1.34842263255e-05
1.34840195463e-05
1.3483824207e-05
1.3483402316e-05
1.34829708453e-05