/*--------------------------------*- C++ -*----------------------------------*\
  =========                 |
  \\      /  F ield         | OpenFOAM: The Open Source CFD Toolbox
   \\    /   O peration     | Website:  https://openfoam.org
    \\  /    A nd           | Version:  6
     \\/     M anipulation  |
\*---------------------------------------------------------------------------*/
FoamFile
{
    version     2.0;
    format      ascii;
    class       volScalarField;
    location    "0.0004225";
    object      H2;
}
// * * * * * * * * * * * * * * * * * * * * * * * * * * * * * * * * * * * * * //

dimensions      [0 0 0 0 0 0 0];

internalField   nonuniform List<scalar> 
32000
(
7.28547850821e-05
7.28547683632e-05
7.28547492987e-05
7.28547389493e-05
7.28547202933e-05
7.28546929519e-05
7.28546766036e-05
7.28546602294e-05
7.28546282814e-05
7.28545909448e-05
7.28545575794e-05
7.28545409142e-05
7.28545184811e-05
7.28544757819e-05
7.28544101146e-05
7.28543329878e-05
7.28542774385e-05
7.28542479412e-05
7.28542299876e-05
7.28542054017e-05
7.28541663918e-05
7.28541072429e-05
7.28540405056e-05
7.2853962709e-05
7.28539069507e-05
7.2853866193e-05
7.28538232978e-05
7.28537780312e-05
7.28537093631e-05
7.2853617187e-05
7.28535237699e-05
7.28534603429e-05
7.2853416331e-05
7.28533563067e-05
7.28532835392e-05
7.28531722099e-05
7.2853045469e-05
7.28529256045e-05
7.28528297601e-05
7.28527649545e-05
7.2852708928e-05
7.28526098899e-05
7.28524995399e-05
7.2852392309e-05
7.28523090849e-05
7.28522521135e-05
7.28521945787e-05
7.28521219585e-05
7.28520173774e-05
7.28518812761e-05
7.28517290691e-05
7.28515260788e-05
7.28513007496e-05
7.2851112234e-05
7.28509005201e-05
7.28507750793e-05
7.28506684211e-05
7.2850596011e-05
7.28505199941e-05
7.28504001199e-05
7.28502751059e-05
7.28501329436e-05
7.28500004508e-05
7.28498257396e-05
7.28497074348e-05
7.28495312459e-05
7.28493585145e-05
7.28492237951e-05
7.28490047397e-05
7.28488130933e-05
7.2848648698e-05
7.28484210182e-05
7.28482497931e-05
7.28481263271e-05
7.28480349943e-05
7.28479136089e-05
7.28478201262e-05
7.28476603601e-05
7.28474903195e-05
7.28472777103e-05
7.28470641291e-05
7.28467536901e-05
7.28465211668e-05
7.28463652803e-05
7.28462502118e-05
7.28461262797e-05
7.2845986041e-05
7.2845850658e-05
7.28455895942e-05
7.2845405508e-05
7.28451288553e-05
7.28448374426e-05
7.28443910076e-05
7.28441016906e-05
7.28438438829e-05
7.28436074792e-05
7.28434424495e-05
7.28432078947e-05
7.28430545779e-05
7.28429377888e-05
7.2842854737e-05
7.28427175817e-05
7.28425024373e-05
7.2842276257e-05
7.28420746066e-05
7.2841868416e-05
7.2841520089e-05
7.28410573867e-05
7.28406517466e-05
7.28402812753e-05
7.28397928226e-05
7.28395259037e-05
7.28391349017e-05
7.28388692471e-05
7.2838680748e-05
7.28384229528e-05
7.28382827027e-05
7.28380738108e-05
7.28379112425e-05
7.28377279288e-05
7.28375196797e-05
7.28373352548e-05
7.28370873844e-05
7.28368267213e-05
7.28366140821e-05
7.28362290202e-05
7.283591868e-05
7.28354053374e-05
7.28348749205e-05
7.28346075673e-05
7.28343458902e-05
7.28341598715e-05
7.28339837188e-05
7.28338046937e-05
7.28335143535e-05
7.2833109754e-05
7.28328229115e-05
7.2832514913e-05
7.28320024711e-05
7.28317025028e-05
7.28312994732e-05
7.28309898489e-05
7.28304093362e-05
7.28301569527e-05
7.28297609942e-05
7.28294349364e-05
7.28292337836e-05
7.28288544923e-05
7.28285981467e-05
7.28284012496e-05
7.28281417745e-05
7.28278079594e-05
7.28275671092e-05
7.28272919418e-05
7.28270672736e-05
7.28267183808e-05
7.28264855416e-05
7.28261091112e-05
7.28258876083e-05
7.2825506745e-05
7.28250043629e-05
7.28246819691e-05
7.28243081149e-05
7.28235352996e-05
7.28229418503e-05
7.28222924155e-05
7.28216247441e-05
7.28210808193e-05
7.28204552602e-05
7.28201014436e-05
7.28196653334e-05
7.2819205309e-05
7.28190147806e-05
7.28186886299e-05
7.28183593292e-05
7.28181789356e-05
7.28178823726e-05
7.28176849117e-05
7.28175369266e-05
7.28172552929e-05
7.2816881326e-05
7.28164354916e-05
7.28160863454e-05
7.28156296943e-05
7.28152271706e-05
7.28147050138e-05
7.28142447041e-05
7.28135853035e-05
7.2813046198e-05
7.28126866008e-05
7.28120419743e-05
7.28117202217e-05
7.28112346194e-05
7.28108327404e-05
7.28105818694e-05
7.28101487671e-05
7.28098067803e-05
7.28093760006e-05
7.28091666636e-05
7.28087856852e-05
7.28082027193e-05
7.28079257954e-05
7.28075703007e-05
7.28069552227e-05
7.28062732801e-05
7.28055968418e-05
7.28047650355e-05
7.2804118538e-05
7.28031028412e-05
7.28024549156e-05
7.28017190619e-05
7.28012078815e-05
7.28006141144e-05
7.28000288843e-05
7.27996871054e-05
7.27994367853e-05
7.27990543129e-05
7.27985621759e-05
7.27983172628e-05
7.27979440298e-05
7.27976996697e-05
7.27973238103e-05
7.27971166892e-05
7.27968527913e-05
7.27964223662e-05
7.27958581154e-05
7.27955754094e-05
7.2795304143e-05
7.27946235393e-05
7.27940367955e-05
7.27937527226e-05
7.27930597307e-05
7.27920024568e-05
7.27915465937e-05
7.27908610188e-05
7.27899598708e-05
7.27893648003e-05
7.27888821648e-05
7.27884288004e-05
7.27876652238e-05
7.2787278117e-05
7.2786783499e-05
7.27864432202e-05
7.27861327945e-05
7.27855372351e-05
7.27848777736e-05
7.2784615244e-05
7.27840723587e-05
7.27834720739e-05
7.27831308926e-05
7.2782383791e-05
7.2781779791e-05
7.27813751185e-05
7.27803895554e-05
7.27797663082e-05
7.27792616544e-05
7.27783047468e-05
7.27773668359e-05
7.27766851397e-05
7.27757032712e-05
7.27747632929e-05
7.27743585779e-05
7.27737375025e-05
7.2772872057e-05
7.27725194032e-05
7.27720709497e-05
7.27714853312e-05
7.27710757829e-05
7.27706053414e-05
7.27700011698e-05
7.27697194114e-05
7.27694484797e-05
7.27688588419e-05
7.27679763763e-05
7.27675097784e-05
7.27672525575e-05
7.27666780732e-05
7.27657208408e-05
7.2765062774e-05
7.27647681749e-05
7.27640187476e-05
7.27628451749e-05
7.2762373838e-05
7.27618990023e-05
7.27611333152e-05
7.27602053595e-05
7.27594136978e-05
7.27588568754e-05
7.27582581922e-05
7.27574880667e-05
7.27568680653e-05
7.27564584129e-05
7.27559791362e-05
7.27551832551e-05
7.27543914739e-05
7.27536535386e-05
7.27533524073e-05
7.27527117444e-05
7.27517319461e-05
7.27512968277e-05
7.27504148475e-05
7.27498515264e-05
7.27493267011e-05
7.27482937717e-05
7.27473446782e-05
7.27468696538e-05
7.27458983009e-05
7.27449801401e-05
7.27443151564e-05
7.27436292996e-05
7.27432157125e-05
7.27426575532e-05
7.27417201273e-05
7.27410602448e-05
7.27406574779e-05
7.27398532176e-05
7.27394848467e-05
7.27389966047e-05
7.27379976775e-05
7.27371305456e-05
7.27368252838e-05
7.27364207101e-05
7.27355106495e-05
7.27343387032e-05
7.27338828567e-05
7.27334557034e-05
7.27326595661e-05
7.27315614837e-05
7.27306863632e-05
7.27301873345e-05
7.2729505354e-05
7.27285205995e-05
7.27274395562e-05
7.27263721581e-05
7.27256480199e-05
7.27251521169e-05
7.27245577244e-05
7.272338315e-05
7.27222537489e-05
7.27212733348e-05
7.27201040375e-05
7.27193365349e-05
7.27188877422e-05
7.2718382826e-05
7.27173236168e-05
7.27163232032e-05
7.27157917294e-05
7.27152002133e-05
7.27142569233e-05
7.27134811077e-05
7.27131750418e-05
7.27126090015e-05
7.27116108077e-05
7.27109337276e-05
7.27106262248e-05
7.27100811836e-05
7.27092422739e-05
7.27084600609e-05
7.27080579097e-05
7.27074559828e-05
7.27064199071e-05
7.27057604351e-05
7.27050634577e-05
7.27042429679e-05
7.27037751488e-05
7.2702932191e-05
7.27017582337e-05
7.27008819165e-05
7.27002287846e-05
7.26993293105e-05
7.2698552418e-05
7.26977837436e-05
7.26971857443e-05
7.26964321115e-05
7.26954440575e-05
7.26945345946e-05
7.26936785731e-05
7.26929919022e-05
7.26924289557e-05
7.26916721412e-05
7.26904833435e-05
7.26891372122e-05
7.26881248456e-05
7.268765652e-05
7.26871626629e-05
7.26860366885e-05
7.26844574462e-05
7.26833044081e-05
7.26826548279e-05
7.26819888055e-05
7.26808039745e-05
7.26797857161e-05
7.26789417927e-05
7.26779312452e-05
7.26765077144e-05
7.26754664016e-05
7.26745672939e-05
7.26736815676e-05
7.26726389213e-05
7.26716427983e-05
7.26708062856e-05
7.26704313142e-05
7.26695824184e-05
7.26682098987e-05
7.26673105473e-05
7.26669277211e-05
7.26662379056e-05
7.26650015014e-05
7.26638461675e-05
7.26627637852e-05
7.2661800908e-05
7.26611570778e-05
7.26606775824e-05
7.26600669723e-05
7.26589691868e-05
7.2657564447e-05
7.26564943975e-05
7.2655916819e-05
7.26554627173e-05
7.26544937821e-05
7.26534482093e-05
7.26526609331e-05
7.26522099372e-05
7.26516532557e-05
7.26511965427e-05
7.26503029805e-05
7.26490071117e-05
7.26480852446e-05
7.26477611841e-05
7.26473509349e-05
7.26465741969e-05
7.2645457714e-05
7.26443340901e-05
7.26432534682e-05
7.26423255248e-05
7.26413539106e-05
7.26400661215e-05
7.2638921965e-05
7.26380556263e-05
7.26359404822e-05
7.26339549585e-05
7.26332928389e-05
7.26323575653e-05
7.26310513278e-05
7.26299735439e-05
7.26295060062e-05
7.26289424163e-05
7.26278985581e-05
7.26266226441e-05
7.26255825547e-05
7.26247593417e-05
7.26241612514e-05
7.26237199836e-05
7.26232044833e-05
7.26225899848e-05
7.26217493706e-05
7.26207343518e-05
7.26195937788e-05
7.26185840612e-05
7.26175044745e-05
7.26166455855e-05
7.26156657517e-05
7.26148334523e-05
7.26136274992e-05
7.26122072087e-05
7.26111999116e-05
7.2609821877e-05
7.26081875661e-05
7.26075228412e-05
7.26065491461e-05
7.26052288871e-05
7.26039036206e-05
7.26028506539e-05
7.26019738306e-05
7.26012764852e-05
7.26005900825e-05
7.25995067617e-05
7.25979418933e-05
7.25967379916e-05
7.25956423187e-05
7.259493048e-05
7.25943764732e-05
7.25928792652e-05
7.25916838152e-05
7.25910738727e-05
7.25900473883e-05
7.25890160706e-05
7.25878163759e-05
7.25862746781e-05
7.25850505306e-05
7.25841999947e-05
7.25825688825e-05
7.25796630406e-05
7.2578520776e-05
7.25777691718e-05
7.25768493483e-05
7.25762189756e-05
7.25752586511e-05
7.25739897382e-05
7.25727220369e-05
7.25715925398e-05
7.25708603258e-05
7.25704238288e-05
7.25696427135e-05
7.2568811105e-05
7.25684086713e-05
7.25677991656e-05
7.25671034933e-05
7.25661395295e-05
7.2565055263e-05
7.25638794365e-05
7.25631349953e-05
7.25626692593e-05
7.25618685447e-05
7.25609472473e-05
7.25597403213e-05
7.25581964983e-05
7.25570661748e-05
7.25564330625e-05
7.25558597484e-05
7.25546426132e-05
7.25529693938e-05
7.25518374268e-05
7.25509036418e-05
7.25485953898e-05
7.254705343e-05
7.25463039287e-05
7.25450439149e-05
7.25435319671e-05
7.25424638546e-05
7.25414366602e-05
7.25388517764e-05
7.25363544768e-05
7.25355963231e-05
7.25346760663e-05
7.25339788571e-05
7.25332849287e-05
7.2531779984e-05
7.25304666475e-05
7.25296450494e-05
7.25292097185e-05
7.2528339761e-05
7.2526452794e-05
7.25253153745e-05
7.25243098459e-05
7.2523289192e-05
7.25220582782e-05
7.25205328911e-05
7.25193076235e-05
7.2518155376e-05
7.25170553083e-05
7.25165204994e-05
7.25159065121e-05
7.2514325822e-05
7.25127756569e-05
7.25116053265e-05
7.25110764286e-05
7.25104715908e-05
7.25087100356e-05
7.2507208993e-05
7.25062514254e-05
7.2504924597e-05
7.25037557031e-05
7.2502537919e-05
7.25013797894e-05
7.2500038099e-05
7.24986224782e-05
7.24975130224e-05
7.24962136776e-05
7.24951386974e-05
7.24926047801e-05
7.24914096716e-05
7.24903889104e-05
7.24893256862e-05
7.24880449168e-05
7.24871533841e-05
7.24865630835e-05
7.24855959476e-05
7.24838798406e-05
7.24825215952e-05
7.24815413164e-05
7.24806639704e-05
7.24797400216e-05
7.24787607182e-05
7.2476903924e-05
7.24760641736e-05
7.24746325071e-05
7.24736896984e-05
7.24727214555e-05
7.24715366574e-05
7.24700737315e-05
7.24684782718e-05
7.24675934857e-05
7.24661453466e-05
7.24648016085e-05
7.24635140562e-05
7.24623604192e-05
7.24617313393e-05
7.24601861143e-05
7.24586456444e-05
7.24576724873e-05
7.24561444037e-05
7.2455301562e-05
7.2454228689e-05
7.24530561145e-05
7.24520784634e-05
7.24502502336e-05
7.24475953488e-05
7.2445442229e-05
7.24438543649e-05
7.24415007415e-05
7.24405491486e-05
7.24398397822e-05
7.24386843371e-05
7.24374977203e-05
7.24361093312e-05
7.24349169705e-05
7.24340383704e-05
7.24328178066e-05
7.24319825285e-05
7.24311017436e-05
7.24305027779e-05
7.2429309818e-05
7.2427906492e-05
7.24263434735e-05
7.24252417397e-05
7.2424079688e-05
7.24230559527e-05
7.24219328615e-05
7.24203919284e-05
7.24189592139e-05
7.24176563945e-05
7.24165042487e-05
7.24157549452e-05
7.24144686314e-05
7.24125934198e-05
7.24107286593e-05
7.24089261996e-05
7.2407359753e-05
7.24056268285e-05
7.24032249362e-05
7.24004865498e-05
7.23994503615e-05
7.2398776843e-05
7.23977104124e-05
7.23966724901e-05
7.23957876143e-05
7.23950659292e-05
7.23938252342e-05
7.23922321395e-05
7.23910583842e-05
7.23897350257e-05
7.23880439411e-05
7.23865249999e-05
7.23852662809e-05
7.23845074129e-05
7.23836367425e-05
7.23827692645e-05
7.23818060674e-05
7.23802947391e-05
7.23786894556e-05
7.23772461921e-05
7.2376411543e-05
7.23752849946e-05
7.2372815441e-05
7.23694821168e-05
7.2366640643e-05
7.23653703007e-05
7.2364472017e-05
7.23633927149e-05
7.23625889369e-05
7.2361835102e-05
7.2360585028e-05
7.23588529947e-05
7.23578351438e-05
7.2356689458e-05
7.23553947854e-05
7.23539347016e-05
7.23524943067e-05
7.23509165771e-05
7.23496997147e-05
7.23482598826e-05
7.23468599248e-05
7.23454703946e-05
7.23440841976e-05
7.23428067676e-05
7.2342123707e-05
7.23408267746e-05
7.23382067878e-05
7.23357921806e-05
7.23342345731e-05
7.23330299084e-05
7.23321077676e-05
7.23306754884e-05
7.23280477262e-05
7.23263116564e-05
7.23255643411e-05
7.23245109707e-05
7.23238105935e-05
7.23221453289e-05
7.23206832298e-05
7.23199249741e-05
7.23185647667e-05
7.23176828337e-05
7.23166511325e-05
7.23155242792e-05
7.23146660757e-05
7.23133639938e-05
7.23116044669e-05
7.23104977046e-05
7.23090894293e-05
7.23077953068e-05
7.2306702726e-05
7.23054901189e-05
7.23039982522e-05
7.23025362438e-05
7.23011435845e-05
7.2300077469e-05
7.2299309352e-05
7.22977200286e-05
7.22952680405e-05
7.22926217695e-05
7.2290049959e-05
7.22875690416e-05
7.22851740648e-05
7.22825866773e-05
7.22810136044e-05
7.2280341258e-05
7.22794797896e-05
7.22784501508e-05
7.22759169782e-05
7.22742842823e-05
7.22735969348e-05
7.2272616449e-05
7.22711639848e-05
7.22695152612e-05
7.22680730353e-05
7.22668986319e-05
7.22660604525e-05
7.22638365745e-05
7.22608874565e-05
7.22598307998e-05
7.22589149741e-05
7.22573408632e-05
7.225637947e-05
7.22554885444e-05
7.22535811775e-05
7.22511284194e-05
7.22488482389e-05
7.22471276392e-05
7.22464284854e-05
7.22450298234e-05
7.2244090509e-05
7.22430104013e-05
7.2241127935e-05
7.22390937104e-05
7.22372273847e-05
7.22354882346e-05
7.22337617131e-05
7.22321036339e-05
7.22305109792e-05
7.22288146396e-05
7.22267775371e-05
7.22244597427e-05
7.2222021467e-05
7.22192317539e-05
7.22178179984e-05
7.22173677095e-05
7.22165744642e-05
7.22152951873e-05
7.22134135958e-05
7.2212029147e-05
7.22106981323e-05
7.22094676487e-05
7.22089695458e-05
7.22079941886e-05
7.22064695792e-05
7.22046863919e-05
7.2203260884e-05
7.22024871039e-05
7.22009817145e-05
7.21982985613e-05
7.21957574701e-05
7.21949892862e-05
7.21939864898e-05
7.21932077184e-05
7.21924988704e-05
7.21912293567e-05
7.21894808329e-05
7.21879939021e-05
7.21869005918e-05
7.2184925812e-05
7.2184029415e-05
7.21825901529e-05
7.21810202438e-05
7.21802849068e-05
7.21792089356e-05
7.21770890328e-05
7.21742182775e-05
7.21715294268e-05
7.2169538831e-05
7.21677560844e-05
7.2166007096e-05
7.2164230775e-05
7.21622613166e-05
7.21606560345e-05
7.2159140058e-05
7.21577328108e-05
7.21562698552e-05
7.21547020634e-05
7.21529009106e-05
7.21509035163e-05
7.21488786679e-05
7.21469773942e-05
7.21451189777e-05
7.21432429627e-05
7.21412796846e-05
7.21393672654e-05
7.21375091702e-05
7.21352359772e-05
7.21330985334e-05
7.21312379484e-05
7.212968738e-05
7.21281977113e-05
7.2126776558e-05
7.21249971624e-05
7.21223802543e-05
7.2120798652e-05
7.21201829536e-05
7.21190593147e-05
7.21172098233e-05
7.21154330248e-05
7.21143416741e-05
7.21134339492e-05
7.21120549643e-05
7.21107446385e-05
7.21095180972e-05
7.21078348552e-05
7.21064978945e-05
7.21049917292e-05
7.21036351924e-05
7.21028743728e-05
7.21014875888e-05
7.20992076608e-05
7.20969186468e-05
7.20949888475e-05
7.20928919981e-05
7.20910470607e-05
7.20888055271e-05
7.2086425154e-05
7.20841959983e-05
7.20823923352e-05
7.20807506722e-05
7.20793334293e-05
7.20777340018e-05
7.20760300742e-05
7.20742837037e-05
7.20722357291e-05
7.20699249329e-05
7.20677069514e-05
7.20660546027e-05
7.20646680572e-05
7.20631516153e-05
7.20614474926e-05
7.20605419848e-05
7.20595474082e-05
7.20579271395e-05
7.20556408204e-05
7.20528812389e-05
7.20502468145e-05
7.20482116819e-05
7.20466796871e-05
7.20454118372e-05
7.20442385531e-05
7.20431516016e-05
7.20417256565e-05
7.20399234322e-05
7.20378999494e-05
7.20355305816e-05
7.20326343529e-05
7.2030234491e-05
7.20295778192e-05
7.20287129997e-05
7.20276329355e-05
7.20261682926e-05
7.20244910218e-05
7.20229892062e-05
7.202185253e-05
7.20211149143e-05
7.20195633939e-05
7.20169915235e-05
7.201439983e-05
7.20122452745e-05
7.20102132656e-05
7.20083178409e-05
7.20066044921e-05
7.20048378153e-05
7.20027245757e-05
7.20001969293e-05
7.19976586925e-05
7.19953825512e-05
7.19932690239e-05
7.19911798566e-05
7.19888396045e-05
7.19869232055e-05
7.19851780157e-05
7.19844363575e-05
7.19833466489e-05
7.19818242355e-05
7.19802564243e-05
7.19789270623e-05
7.19780328356e-05
7.19764672945e-05
7.19741254236e-05
7.19717816095e-05
7.19691436424e-05
7.19674498773e-05
7.19667495171e-05
7.19655114814e-05
7.1963924477e-05
7.19623229043e-05
7.19613694557e-05
7.19604349473e-05
7.19585777365e-05
7.19560094707e-05
7.19533659107e-05
7.19507412863e-05
7.19488614886e-05
7.19476384389e-05
7.19427866427e-05
7.19379739937e-05
7.19360502636e-05
7.19338589595e-05
7.193161927e-05
7.19292923452e-05
7.19270088383e-05
7.19248215061e-05
7.19226092332e-05
7.19206550179e-05
7.19187769818e-05
7.19172205488e-05
7.19152524155e-05
7.1912459946e-05
7.19113158394e-05
7.1910631166e-05
7.19097350199e-05
7.19085058055e-05
7.19072163632e-05
7.1906063323e-05
7.19049737517e-05
7.19037755933e-05
7.19022502531e-05
7.19002967035e-05
7.18986046399e-05
7.1897251871e-05
7.18959519836e-05
7.18946302575e-05
7.1893242421e-05
7.18920458728e-05
7.18910244931e-05
7.18898241529e-05
7.18884170989e-05
7.18868414029e-05
7.18851692004e-05
7.18835063526e-05
7.1882020725e-05
7.18811085879e-05
7.18800566568e-05
7.18778454742e-05
7.1875330006e-05
7.18738301186e-05
7.18708371987e-05
7.18659667593e-05
7.18597755146e-05
7.18541023742e-05
7.18524629219e-05
7.18507779563e-05
7.18488934329e-05
7.18464038236e-05
7.18446720221e-05
7.18440740739e-05
7.18431739364e-05
7.18416178904e-05
7.18399826033e-05
7.18380458025e-05
7.18366168524e-05
7.18349338052e-05
7.18332360618e-05
7.18323263994e-05
7.18312211087e-05
7.18299055737e-05
7.18288093424e-05
7.18275354452e-05
7.18255846486e-05
7.18233182751e-05
7.18219477672e-05
7.18200576902e-05
7.18150743197e-05
7.18077923206e-05
7.18054345091e-05
7.18035001042e-05
7.18014929459e-05
7.18006038139e-05
7.17996965453e-05
7.17991283307e-05
7.17979155645e-05
7.17959188452e-05
7.17939514204e-05
7.1793235225e-05
7.17921421761e-05
7.17903266539e-05
7.17885327935e-05
7.17878788378e-05
7.17872712579e-05
7.17863125292e-05
7.17847238495e-05
7.17826362845e-05
7.17806476616e-05
7.17789679543e-05
7.17777641019e-05
7.17768626465e-05
7.17750502197e-05
7.17733271939e-05
7.17709456041e-05
7.1767042335e-05
7.176219114e-05
7.17574274255e-05
7.17532479445e-05
7.17494940552e-05
7.17461784853e-05
7.17412241972e-05
7.17389939456e-05
7.17372960609e-05
7.17355309377e-05
7.17332758002e-05
7.17312774855e-05
7.17304822694e-05
7.17293080026e-05
7.17277917343e-05
7.17268054631e-05
7.17254577119e-05
7.17236708788e-05
7.17221285314e-05
7.17205859698e-05
7.17190220256e-05
7.17175367386e-05
7.17160763045e-05
7.1714620214e-05
7.17131056699e-05
7.17115151894e-05
7.17098368332e-05
7.17081181504e-05
7.17064088451e-05
7.17047157821e-05
7.17030783962e-05
7.1701607918e-05
7.17004809565e-05
7.16993743317e-05
7.16975745186e-05
7.16954717571e-05
7.16920076732e-05
7.16878993785e-05
7.16842924553e-05
7.16814085355e-05
7.16785736583e-05
7.16757633118e-05
7.16732130254e-05
7.1670837218e-05
7.16667497792e-05
7.16642684309e-05
7.16620016787e-05
7.16595881076e-05
7.16585805486e-05
7.16574971813e-05
7.16561571631e-05
7.16547453052e-05
7.16533477521e-05
7.16517767058e-05
7.16499261885e-05
7.16482667751e-05
7.16467788252e-05
7.16452534585e-05
7.16436606632e-05
7.16420386388e-05
7.16404460114e-05
7.16388833479e-05
7.16373955108e-05
7.1636024397e-05
7.16348871946e-05
7.16329120035e-05
7.16295630593e-05
7.16253146522e-05
7.16208860083e-05
7.16168513718e-05
7.16131907685e-05
7.16098508832e-05
7.16070215808e-05
7.16045188239e-05
7.16025124981e-05
7.16006809743e-05
7.15990670329e-05
7.15973564495e-05
7.15938087239e-05
7.15891955137e-05
7.15877310519e-05
7.15866219352e-05
7.15854756184e-05
7.15840442517e-05
7.15823614325e-05
7.15805516783e-05
7.15788060885e-05
7.15773076767e-05
7.15759450697e-05
7.1574480237e-05
7.1572651583e-05
7.15697689347e-05
7.15679125462e-05
7.15661781529e-05
7.15645560601e-05
7.15629499342e-05
7.15616277446e-05
7.15601210943e-05
7.15586656151e-05
7.15569780491e-05
7.15551499452e-05
7.15533552812e-05
7.15515681148e-05
7.15497282006e-05
7.15482789127e-05
7.15461636053e-05
7.15425671572e-05
7.15376855863e-05
7.15345529261e-05
7.15305271302e-05
7.15286116591e-05
7.15268428563e-05
7.15251351754e-05
7.15236814841e-05
7.1522374244e-05
7.15210275676e-05
7.1519328848e-05
7.15174570211e-05
7.15156156827e-05
7.1513849819e-05
7.15121564591e-05
7.15105733648e-05
7.15084294675e-05
7.15054003461e-05
7.15011120002e-05
7.14977339532e-05
7.14950454236e-05
7.14923301053e-05
7.148977219e-05
7.14870492073e-05
7.14841499741e-05
7.14813273485e-05
7.14785715617e-05
7.14756946933e-05
7.14725429802e-05
7.14689996841e-05
7.14651068293e-05
7.14612665901e-05
7.14578341593e-05
7.14546583657e-05
7.14496190677e-05
7.14471688652e-05
7.14451578876e-05
7.14439936741e-05
7.14426936571e-05
7.144093823e-05
7.14389002338e-05
7.14371655604e-05
7.143571919e-05
7.14344466251e-05
7.14330784884e-05
7.14312788239e-05
7.14297376173e-05
7.1426808174e-05
7.14232773207e-05
7.14209624328e-05
7.14187005636e-05
7.14174724702e-05
7.14160696617e-05
7.14134010742e-05
7.14100994952e-05
7.14086738781e-05
7.14074111204e-05
7.14057928577e-05
7.14032730551e-05
7.13999177733e-05
7.13983765076e-05
7.1397234696e-05
7.1395947135e-05
7.1394376958e-05
7.13925862938e-05
7.13908659386e-05
7.13893042465e-05
7.13875850769e-05
7.13856547193e-05
7.13838995788e-05
7.13823302081e-05
7.13806765341e-05
7.13789539626e-05
7.13772509846e-05
7.13757593664e-05
7.13742611355e-05
7.13719430178e-05
7.13695417944e-05
7.13673110032e-05
7.13629575215e-05
7.13578748403e-05
7.13537229587e-05
7.13501255255e-05
7.1346886831e-05
7.13440918006e-05
7.13409841268e-05
7.13382145958e-05
7.13348179218e-05
7.13309240856e-05
7.13283081369e-05
7.13257585138e-05
7.13228598514e-05
7.13200550308e-05
7.13170372222e-05
7.131402022e-05
7.13101912155e-05
7.13073234701e-05
7.13047935407e-05
7.13024841447e-05
7.13002537513e-05
7.12980435544e-05
7.12959616537e-05
7.12939329829e-05
7.12918783197e-05
7.12897394034e-05
7.12876342071e-05
7.12850848099e-05
7.12825904029e-05
7.1280404794e-05
7.12780803008e-05
7.1275451036e-05
7.1272957797e-05
7.12705518798e-05
7.12681393744e-05
7.12658773413e-05
7.12635702374e-05
7.12611772115e-05
7.1258523666e-05
7.12555984686e-05
7.12528693782e-05
7.12502053318e-05
7.12475079138e-05
7.12444502434e-05
7.12405787558e-05
7.1236402002e-05
7.12325313544e-05
7.1226040319e-05
7.12230971917e-05
7.12208278181e-05
7.12184818041e-05
7.12156814525e-05
7.1212627245e-05
7.12096008716e-05
7.12062398387e-05
7.12034141437e-05
7.12009718393e-05
7.1198683329e-05
7.11965135145e-05
7.11944197988e-05
7.11928223364e-05
7.11915209127e-05
7.11900447487e-05
7.11886930346e-05
7.11868495368e-05
7.11845832934e-05
7.11823059823e-05
7.11802864937e-05
7.11784793207e-05
7.11767843266e-05
7.11751230671e-05
7.11737207751e-05
7.11723188571e-05
7.11708310219e-05
7.11692725522e-05
7.11675274117e-05
7.11655525748e-05
7.11633920607e-05
7.11608856789e-05
7.11580173715e-05
7.11553722292e-05
7.11529586628e-05
7.11504423037e-05
7.11479083489e-05
7.11454521511e-05
7.11429223305e-05
7.11403267486e-05
7.11376888015e-05
7.11351392968e-05
7.11327017154e-05
7.11300297773e-05
7.11265671668e-05
7.11219688066e-05
7.11172941999e-05
7.11133353612e-05
7.11090035316e-05
7.1104750879e-05
7.11010319249e-05
7.109607648e-05
7.10923186996e-05
7.10888896628e-05
7.10854434932e-05
7.10819604113e-05
7.10792083427e-05
7.10748404172e-05
7.107113277e-05
7.10685918322e-05
7.10660313076e-05
7.10631454811e-05
7.10600579355e-05
7.10568972437e-05
7.10533706939e-05
7.10502510735e-05
7.10476981755e-05
7.10455625527e-05
7.10436672351e-05
7.10418049558e-05
7.10399001215e-05
7.10380046098e-05
7.10358690199e-05
7.10334970906e-05
7.1031587017e-05
7.1029953572e-05
7.10282752881e-05
7.10264749149e-05
7.10245455259e-05
7.10223128561e-05
7.10198769589e-05
7.1017898629e-05
7.10165715702e-05
7.10153931399e-05
7.10147291619e-05
7.10136797685e-05
7.10118412103e-05
7.10091522791e-05
7.10059316861e-05
7.10029190334e-05
7.10018595157e-05
7.1000640908e-05
7.09995506408e-05
7.09978754391e-05
7.09955616005e-05
7.09930718472e-05
7.09903578372e-05
7.09875018516e-05
7.09841735516e-05
7.09812850317e-05
7.09785854251e-05
7.09752073556e-05
7.09721275781e-05
7.0967736542e-05
7.09603116144e-05
7.09535492493e-05
7.09507506889e-05
7.09456430152e-05
7.0941230177e-05
7.09372358453e-05
7.09316243143e-05
7.09272954971e-05
7.09235484805e-05
7.09202059338e-05
7.09175348435e-05
7.09152170589e-05
7.09129866604e-05
7.09101580266e-05
7.09068572818e-05
7.0903933871e-05
7.09014299423e-05
7.08991529658e-05
7.08971160268e-05
7.08949054775e-05
7.08927006478e-05
7.08903797933e-05
7.08879765016e-05
7.08854725352e-05
7.08828788121e-05
7.08803575554e-05
7.08780163235e-05
7.08756732042e-05
7.08730632122e-05
7.08703537276e-05
7.08677697441e-05
7.08652394448e-05
7.08626601382e-05
7.08598728067e-05
7.08568085087e-05
7.08537299256e-05
7.0850746504e-05
7.08478774578e-05
7.08450311065e-05
7.08421023694e-05
7.08388495922e-05
7.08351551695e-05
7.08311951056e-05
7.08276471864e-05
7.0822526154e-05
7.08180361828e-05
7.08137979568e-05
7.08090032491e-05
7.08045418192e-05
7.08007754473e-05
7.0796424634e-05
7.07932730235e-05
7.07907119472e-05
7.07885345148e-05
7.07863050021e-05
7.07840725835e-05
7.07816496588e-05
7.07793180774e-05
7.07772024697e-05
7.0775618447e-05
7.07743545601e-05
7.07736918104e-05
7.07725534332e-05
7.07705298248e-05
7.07672651335e-05
7.07652577035e-05
7.07637783286e-05
7.07625132639e-05
7.07613100349e-05
7.07600568272e-05
7.07587829646e-05
7.0756571675e-05
7.07538074214e-05
7.07505133537e-05
7.07468520213e-05
7.07425947854e-05
7.07400963411e-05
7.07339840719e-05
7.07230794511e-05
7.07156526431e-05
7.07125763656e-05
7.07092447503e-05
7.07067072924e-05
7.07051420029e-05
7.07031622099e-05
7.070154008e-05
7.06987937809e-05
7.06969039994e-05
7.06951030052e-05
7.06935324931e-05
7.06918103576e-05
7.0690243762e-05
7.06881268942e-05
7.06859229948e-05
7.06834420651e-05
7.06821850252e-05
7.06810394331e-05
7.0679832138e-05
7.06784460192e-05
7.0677100853e-05
7.06750022646e-05
7.06727138511e-05
7.06700212675e-05
7.06671300468e-05
7.06646494213e-05
7.06620538809e-05
7.06593437521e-05
7.06565383951e-05
7.06522436126e-05
7.0648905835e-05
7.06457918789e-05
7.06379664646e-05
7.06293780008e-05
7.06250030465e-05
7.0622126892e-05
7.06183276871e-05
7.06142348271e-05
7.06109293657e-05
7.06073854089e-05
7.06045099912e-05
7.06015838132e-05
7.05990371375e-05
7.05967572905e-05
7.05947512473e-05
7.05925558695e-05
7.05902287045e-05
7.05874787358e-05
7.0584831078e-05
7.05821478891e-05
7.057935851e-05
7.05765647227e-05
7.05737774156e-05
7.05708298451e-05
7.05677324274e-05
7.05651097995e-05
7.05626622173e-05
7.05596092146e-05
7.05569129812e-05
7.05537673052e-05
7.05510912046e-05
7.05487346236e-05
7.05438024746e-05
7.05394270944e-05
7.05350723951e-05
7.05311239286e-05
7.05276870602e-05
7.05241851932e-05
7.05204623218e-05
7.05172530509e-05
7.05143567929e-05
7.05113710836e-05
7.05072629638e-05
7.05035112269e-05
7.05005308901e-05
7.04975587877e-05
7.0494527634e-05
7.04909024459e-05
7.048736756e-05
7.04840857093e-05
7.04811435581e-05
7.04780636839e-05
7.04752479468e-05
7.04724862998e-05
7.04696150207e-05
7.046629833e-05
7.04629375639e-05
7.04597167785e-05
7.045691436e-05
7.04544712327e-05
7.04521774186e-05
7.04498466639e-05
7.0447330823e-05
7.04444118923e-05
7.04412453483e-05
7.0438158006e-05
7.04353436424e-05
7.04328038983e-05
7.04301923177e-05
7.04273460338e-05
7.04242124698e-05
7.04211839144e-05
7.04171377854e-05
7.04132436541e-05
7.04096741662e-05
7.04067011638e-05
7.04038214194e-05
7.04013181994e-05
7.03978263256e-05
7.03931311528e-05
7.03896291924e-05
7.03862542493e-05
7.03824663613e-05
7.03777264165e-05
7.03732909568e-05
7.03683760025e-05
7.03629660519e-05
7.03598336154e-05
7.03569513276e-05
7.03534373605e-05
7.03494369775e-05
7.03461176375e-05
7.0342560303e-05
7.03385156717e-05
7.03351003863e-05
7.03322391184e-05
7.03295835354e-05
7.03270128349e-05
7.03245412676e-05
7.03219104036e-05
7.03189198887e-05
7.03156127971e-05
7.03125887097e-05
7.03101771518e-05
7.0307807823e-05
7.03059431203e-05
7.03045309024e-05
7.03031755175e-05
7.0301517974e-05
7.02996228868e-05
7.02973952031e-05
7.02950896538e-05
7.02927958309e-05
7.02906111519e-05
7.02885950422e-05
7.02864594315e-05
7.02843564548e-05
7.02820635986e-05
7.02794297137e-05
7.02768135465e-05
7.02738562549e-05
7.0271023723e-05
7.02683910327e-05
7.02640230555e-05
7.02602937818e-05
7.02567069074e-05
7.02530885652e-05
7.02492318723e-05
7.02448480251e-05
7.02394602871e-05
7.02342558411e-05
7.02299499509e-05
7.02261924476e-05
7.02225441638e-05
7.0217317697e-05
7.02088356475e-05
7.02015455787e-05
7.01970049722e-05
7.01929558855e-05
7.01888026475e-05
7.01849055249e-05
7.01813454546e-05
7.01775557556e-05
7.01740143912e-05
7.01708953513e-05
7.0166940272e-05
7.01641159601e-05
7.01617890328e-05
7.01591261783e-05
7.01560080642e-05
7.01529974409e-05
7.01499660824e-05
7.01469496988e-05
7.01443370693e-05
7.01416688395e-05
7.01398232306e-05
7.01384928971e-05
7.01375476347e-05
7.01361880843e-05
7.0134258181e-05
7.01315250149e-05
7.01280104158e-05
7.01248797316e-05
7.01224129462e-05
7.01201958103e-05
7.01181515446e-05
7.01144587244e-05
7.01107997675e-05
7.0107505111e-05
7.01041161777e-05