/*--------------------------------*- C++ -*----------------------------------*\
  =========                 |
  \\      /  F ield         | OpenFOAM: The Open Source CFD Toolbox
   \\    /   O peration     | Website:  https://openfoam.org
    \\  /    A nd           | Version:  6
     \\/     M anipulation  |
\*---------------------------------------------------------------------------*/
FoamFile
{
    version     2.0;
    format      ascii;
    class       volScalarField;
    location    "0.0004225";
    object      H2O;
}
// * * * * * * * * * * * * * * * * * * * * * * * * * * * * * * * * * * * * * //

dimensions      [0 0 0 0 0 0 0];

internalField   nonuniform List<scalar> 
32000
(
0.113320164349
0.113320164522
0.113320164719
0.113320164827
0.113320165021
0.113320165305
0.113320165474
0.113320165644
0.113320165976
0.113320166362
0.113320166709
0.113320166882
0.113320167115
0.113320167558
0.113320168238
0.113320169037
0.113320169612
0.113320169919
0.113320170106
0.113320170362
0.113320170766
0.113320171379
0.11332017207
0.113320172875
0.113320173453
0.113320173876
0.113320174321
0.113320174791
0.113320175502
0.113320176457
0.113320177424
0.113320178082
0.113320178539
0.113320179161
0.113320179916
0.113320181068
0.11332018238
0.113320183622
0.113320184615
0.113320185287
0.113320185869
0.113320186896
0.113320188039
0.11332018915
0.113320190014
0.113320190606
0.113320191204
0.113320191958
0.113320193043
0.113320194454
0.11332019603
0.113320198131
0.113320200464
0.113320202416
0.113320204608
0.113320205907
0.113320207014
0.113320207766
0.113320208556
0.113320209799
0.113320211095
0.113320212568
0.113320213942
0.113320215753
0.11332021698
0.113320218805
0.113320220595
0.113320221991
0.113320224259
0.113320226243
0.113320227946
0.113320230303
0.113320232077
0.113320233357
0.113320234305
0.113320235566
0.113320236537
0.113320238193
0.113320239955
0.113320242157
0.113320244369
0.113320247582
0.11332024999
0.113320251607
0.113320252802
0.113320254088
0.113320255544
0.113320256949
0.113320259654
0.113320261563
0.113320264429
0.113320267447
0.113320272069
0.113320275066
0.113320277737
0.113320280187
0.113320281899
0.113320284332
0.113320285924
0.113320287138
0.113320288003
0.113320289428
0.113320291659
0.113320294005
0.113320296097
0.113320298234
0.113320301842
0.113320306631
0.11332031083
0.113320314665
0.113320319721
0.113320322486
0.113320326534
0.113320329287
0.113320331241
0.113320333914
0.11332033537
0.113320337538
0.113320339226
0.113320341128
0.113320343289
0.113320345202
0.113320347773
0.113320350475
0.113320352679
0.113320356667
0.113320359881
0.113320365193
0.113320370682
0.113320373452
0.113320376165
0.113320378095
0.113320379925
0.113320381784
0.113320384794
0.113320388985
0.113320391958
0.113320395149
0.113320400457
0.113320403565
0.11332040774
0.113320410948
0.11332041696
0.113320419576
0.113320423679
0.11332042706
0.113320429146
0.11332043308
0.113320435739
0.113320437782
0.113320440474
0.113320443936
0.113320446436
0.11332044929
0.113320451622
0.113320455239
0.113320457655
0.113320461559
0.113320463857
0.113320467805
0.113320473011
0.113320476353
0.113320480226
0.113320488226
0.113320494369
0.113320501091
0.113320508002
0.113320513633
0.113320520111
0.113320523776
0.113320528295
0.113320533063
0.11332053504
0.113320538422
0.113320541838
0.113320543712
0.113320546791
0.113320548844
0.113320550382
0.113320553305
0.113320557183
0.113320561802
0.113320565421
0.113320570151
0.113320574322
0.11332057973
0.113320584498
0.113320591325
0.113320596908
0.113320600633
0.113320607309
0.113320610643
0.113320615675
0.113320619841
0.113320622443
0.113320626933
0.11332063048
0.113320634948
0.11332063712
0.113320641071
0.113320647113
0.113320649985
0.113320653671
0.113320660043
0.113320667106
0.113320674111
0.113320682723
0.113320689416
0.113320699929
0.113320706637
0.113320714256
0.11332071955
0.113320725701
0.113320731766
0.113320735311
0.11332073791
0.113320741877
0.113320746983
0.113320749527
0.113320753401
0.113320755938
0.113320759841
0.113320761993
0.113320764734
0.113320769199
0.113320775051
0.113320777986
0.1133207808
0.113320787852
0.113320793933
0.11332079688
0.113320804057
0.113320815003
0.113320819724
0.113320826823
0.113320836153
0.113320842317
0.113320847317
0.113320852015
0.113320859926
0.11332086394
0.113320869068
0.113320872598
0.113320875819
0.113320881992
0.113320888829
0.113320891553
0.11332089718
0.113320903403
0.11332090694
0.113320914681
0.113320920941
0.113320925135
0.113320935342
0.113320941799
0.113320947027
0.113320956934
0.113320966645
0.113320973705
0.113320983871
0.113320993606
0.1133209978
0.113321004234
0.113321013201
0.113321016858
0.113321021507
0.11332102758
0.11332103183
0.113321036709
0.113321042976
0.113321045901
0.113321048714
0.113321054827
0.113321063973
0.113321068812
0.113321071482
0.113321077436
0.113321087353
0.113321094174
0.113321097229
0.113321104992
0.113321117146
0.11332112203
0.113321126951
0.113321134883
0.113321144494
0.113321152695
0.113321158466
0.113321164669
0.113321172648
0.113321179074
0.113321183323
0.113321188291
0.113321196537
0.113321204742
0.11332121239
0.113321215513
0.113321222152
0.113321232304
0.113321236814
0.113321245951
0.11332125179
0.113321257228
0.113321267927
0.113321277758
0.11332128268
0.11332129274
0.113321302251
0.11332130914
0.113321316247
0.113321320535
0.113321326321
0.113321336035
0.113321342877
0.113321347053
0.113321355391
0.113321359213
0.113321364275
0.113321374626
0.113321383614
0.113321386782
0.113321390978
0.113321400407
0.113321412549
0.113321417275
0.113321421704
0.113321429954
0.11332144133
0.113321450398
0.113321455573
0.113321462639
0.113321472839
0.113321484036
0.113321495091
0.113321502592
0.113321507732
0.11332151389
0.113321526053
0.113321537748
0.113321547901
0.113321560011
0.113321567962
0.113321572615
0.113321577848
0.113321588818
0.113321599181
0.11332160469
0.11332161082
0.113321620595
0.113321628638
0.113321631814
0.113321637684
0.113321648031
0.113321655054
0.113321658246
0.113321663899
0.113321672596
0.113321680707
0.11332168488
0.11332169112
0.113321701857
0.113321708693
0.113321715916
0.113321724419
0.113321729269
0.113321738003
0.113321750165
0.113321759245
0.113321766015
0.113321775336
0.113321783386
0.113321791354
0.113321797554
0.113321805365
0.113321815602
0.113321825027
0.1133218339
0.113321841018
0.113321846856
0.113321854699
0.113321867014
0.113321880958
0.113321891449
0.113321896306
0.113321901426
0.11332191309
0.113321929446
0.11332194139
0.113321948121
0.113321955022
0.113321967294
0.113321977842
0.113321986587
0.113321997055
0.113322011796
0.113322022582
0.113322031896
0.113322041072
0.113322051874
0.113322062196
0.113322070868
0.113322074758
0.113322083554
0.113322097775
0.113322107097
0.113322111069
0.113322118219
0.113322131028
0.113322142998
0.113322154213
0.113322164191
0.113322170865
0.113322175838
0.113322182168
0.113322193542
0.113322208095
0.113322219184
0.113322225173
0.113322229883
0.113322239925
0.113322250764
0.113322258929
0.113322263609
0.113322269387
0.113322274127
0.11332228339
0.113322296824
0.113322306385
0.11332230975
0.113322314008
0.113322322061
0.113322333632
0.113322345276
0.113322356474
0.113322366089
0.113322376155
0.113322389492
0.11332240134
0.11332241031
0.113322432202
0.113322452756
0.113322459613
0.1133224693
0.113322482829
0.113322493996
0.113322498843
0.113322504685
0.113322515501
0.113322528723
0.113322539504
0.113322548041
0.113322554245
0.113322558824
0.113322564173
0.113322570548
0.113322579265
0.113322589787
0.113322601607
0.113322612073
0.113322623261
0.113322632164
0.113322642318
0.113322650942
0.113322663433
0.113322678142
0.113322688574
0.113322702841
0.113322719763
0.113322726648
0.113322736734
0.113322750409
0.113322764137
0.113322775046
0.113322784135
0.113322791366
0.113322798481
0.113322809705
0.113322825915
0.113322838388
0.113322849743
0.113322857123
0.113322862865
0.113322878378
0.113322890767
0.113322897088
0.113322907724
0.113322918408
0.113322930835
0.113322946801
0.113322959479
0.113322968285
0.113322985169
0.113323015249
0.113323027076
0.113323034861
0.113323044391
0.113323050924
0.113323060874
0.11332307402
0.113323087158
0.113323098867
0.113323106462
0.11332311099
0.113323119093
0.113323127722
0.113323131899
0.113323138224
0.113323145441
0.113323155437
0.113323166679
0.11332317887
0.113323186589
0.113323191418
0.113323199719
0.113323209269
0.113323221775
0.113323237769
0.113323249482
0.113323256045
0.113323261986
0.113323274594
0.113323291923
0.113323303645
0.113323313313
0.11332333721
0.113323353176
0.113323360938
0.113323373986
0.113323389643
0.113323400702
0.113323411335
0.11332343809
0.113323463942
0.113323471793
0.113323481327
0.113323488551
0.11332349574
0.113323511331
0.113323524939
0.113323533456
0.11332353797
0.113323546983
0.113323566527
0.113323578307
0.113323588724
0.113323599297
0.113323612046
0.113323627844
0.113323640535
0.113323652472
0.113323663872
0.113323669416
0.113323675778
0.113323692151
0.11332370821
0.113323720336
0.113323725818
0.113323732087
0.113323750333
0.113323765879
0.113323775797
0.113323789539
0.113323801646
0.11332381426
0.113323826256
0.113323840152
0.113323854812
0.113323866302
0.113323879757
0.113323890887
0.113323917122
0.113323929497
0.11332394007
0.113323951083
0.11332396435
0.113323973587
0.113323979705
0.113323989725
0.113324007502
0.113324021573
0.113324031731
0.113324040826
0.113324050404
0.113324060553
0.113324079785
0.113324088483
0.113324103312
0.113324113079
0.113324123109
0.113324135382
0.113324150535
0.113324167059
0.113324176224
0.113324191224
0.113324205144
0.113324218483
0.113324230436
0.113324236954
0.113324252959
0.113324268914
0.113324278993
0.113324294819
0.113324303549
0.11332431466
0.113324326803
0.113324336925
0.113324355851
0.113324383333
0.113324405622
0.11332442206
0.113324446427
0.113324456281
0.113324463627
0.113324475594
0.113324487886
0.113324502268
0.113324514623
0.113324523727
0.113324536375
0.113324545031
0.113324554159
0.113324560367
0.113324572727
0.113324587265
0.113324603457
0.113324614872
0.113324626913
0.113324637521
0.113324649156
0.113324665117
0.113324679957
0.11332469345
0.113324705382
0.113324713141
0.11332472646
0.113324745875
0.113324765181
0.113324783841
0.113324800055
0.113324817989
0.113324842849
0.113324871195
0.113324881923
0.113324888898
0.113324899944
0.113324910697
0.113324919866
0.113324927345
0.113324940197
0.113324956698
0.113324968857
0.113324982565
0.113325000083
0.113325015819
0.11332502886
0.113325036724
0.113325045746
0.113325054736
0.113325064716
0.11332508037
0.113325096996
0.113325111941
0.113325120583
0.113325132243
0.113325157798
0.113325192291
0.113325221701
0.113325234852
0.113325244153
0.11332525533
0.113325263655
0.113325271464
0.113325284411
0.113325302349
0.113325312891
0.113325324758
0.113325338169
0.113325353293
0.113325368212
0.113325384554
0.113325397157
0.11332541207
0.113325426569
0.113325440961
0.113325455317
0.113325468546
0.113325475619
0.113325489045
0.113325516167
0.113325541165
0.113325557292
0.113325569765
0.113325579314
0.113325594143
0.113325621352
0.113325639331
0.113325647071
0.113325657983
0.113325665239
0.113325682491
0.11332569764
0.113325705497
0.11332571959
0.113325728729
0.11332573942
0.113325751098
0.113325759991
0.113325773481
0.113325791709
0.113325803174
0.113325817764
0.113325831172
0.113325842491
0.113325855053
0.113325870506
0.113325885649
0.113325900073
0.113325911114
0.113325919067
0.11332593552
0.113325960899
0.113325988286
0.1133260149
0.113326040574
0.113326065361
0.113326092145
0.113326108431
0.113326115394
0.113326124315
0.113326134976
0.113326161204
0.11332617811
0.113326185229
0.113326195384
0.113326210426
0.1133262275
0.113326242435
0.113326254597
0.113326263275
0.113326286298
0.113326316831
0.113326327772
0.113326337256
0.113326353556
0.113326363511
0.113326372734
0.113326392478
0.113326417868
0.113326441476
0.113326459292
0.113326466533
0.113326481017
0.113326490744
0.113326501928
0.113326521419
0.113326542481
0.113326561804
0.11332657981
0.113326597684
0.113326614848
0.113326631333
0.113326648888
0.113326669968
0.113326693953
0.113326719189
0.113326748069
0.113326762707
0.11332676737
0.113326775588
0.11332678884
0.113326808332
0.113326822675
0.113326836466
0.113326849218
0.11332685438
0.113326864486
0.113326880279
0.113326898749
0.113326913513
0.113326921526
0.113326937112
0.113326964894
0.113326991209
0.113326999166
0.113327009556
0.113327017627
0.113327024972
0.113327038126
0.11332705624
0.113327071644
0.113327082971
0.113327103426
0.113327112711
0.113327127617
0.113327143875
0.11332715149
0.113327162628
0.113327184567
0.113327214276
0.113327242106
0.113327262711
0.113327281167
0.113327299274
0.113327317665
0.113327338056
0.113327354679
0.113327370377
0.113327384949
0.113327400098
0.113327416331
0.113327434979
0.113327455657
0.113327476617
0.113327496297
0.113327515533
0.11332753495
0.113327555271
0.113327575064
0.113327594295
0.113327617822
0.113327639945
0.113327659204
0.113327675256
0.113327690679
0.113327705393
0.113327723816
0.113327750914
0.113327767293
0.11332777367
0.11332778531
0.113327804467
0.113327822872
0.113327834176
0.11332784358
0.113327857865
0.113327871438
0.113327884144
0.11332790158
0.113327915429
0.11332793103
0.11332794508
0.11332795296
0.11332796732
0.113327990926
0.113328014623
0.113328034599
0.113328056301
0.113328075395
0.113328098593
0.113328123229
0.113328146301
0.113328164972
0.113328181967
0.11332819664
0.113328213199
0.11332823084
0.113328248919
0.113328270121
0.113328294044
0.11332831701
0.113328334121
0.113328348481
0.113328364186
0.113328381835
0.113328391212
0.113328401511
0.113328418285
0.113328441951
0.113328470515
0.113328497784
0.113328518853
0.113328534715
0.113328547843
0.113328559992
0.113328571247
0.11332858601
0.113328604669
0.113328625617
0.113328650147
0.113328680135
0.113328704987
0.113328711788
0.113328720746
0.113328731935
0.113328747105
0.113328764478
0.113328780033
0.113328791806
0.113328799444
0.113328815508
0.113328842135
0.113328868967
0.113328891272
0.113328912307
0.113328931927
0.113328949661
0.113328967944
0.113328989812
0.113329015967
0.113329042233
0.113329065787
0.11332908766
0.113329109283
0.113329133508
0.113329153349
0.11332917142
0.113329179101
0.113329190387
0.113329206156
0.113329222395
0.113329236165
0.113329245428
0.113329261643
0.113329285899
0.113329310176
0.113329337501
0.113329355047
0.113329362303
0.113329375129
0.113329391569
0.113329408159
0.113329418034
0.113329427711
0.113329446939
0.113329473524
0.113329500884
0.113329528045
0.113329547496
0.113329560149
0.113329610344
0.113329660136
0.11332968004
0.113329702714
0.11332972589
0.113329749972
0.113329773606
0.113329796246
0.113329819147
0.113329839379
0.113329858824
0.11332987494
0.113329895321
0.113329924243
0.113329936093
0.113329943186
0.113329952472
0.113329965211
0.113329978575
0.113329990527
0.113330001821
0.113330014241
0.113330030049
0.113330050294
0.113330067829
0.113330081849
0.113330095322
0.113330109021
0.113330123407
0.11333013581
0.113330146397
0.113330158836
0.113330173415
0.11333018974
0.113330207063
0.113330224286
0.113330239672
0.113330249116
0.113330260005
0.113330282888
0.113330308915
0.11333032443
0.113330355382
0.113330405753
0.1133304698
0.113330528494
0.113330545458
0.113330562895
0.113330582401
0.113330608178
0.113330626112
0.113330632305
0.113330641631
0.113330657754
0.1133306747
0.113330694769
0.113330709578
0.113330727018
0.113330744609
0.113330754034
0.113330765484
0.11333077911
0.113330790462
0.113330803652
0.113330823847
0.113330847303
0.113330861485
0.11333088104
0.113330932603
0.113331007957
0.113331032357
0.11333105238
0.113331073162
0.113331082371
0.113331091772
0.113331097661
0.113331110232
0.113331130931
0.113331151327
0.113331158752
0.113331170085
0.113331188908
0.113331207509
0.113331214291
0.113331220593
0.113331230532
0.113331246998
0.11333126863
0.113331289234
0.113331306635
0.113331319104
0.113331328439
0.113331347201
0.113331365036
0.113331389682
0.113331430068
0.113331480254
0.113331529537
0.113331572776
0.113331611609
0.113331645913
0.113331697184
0.113331720267
0.113331737841
0.113331756114
0.113331779465
0.113331800159
0.113331808396
0.11333182056
0.113331836269
0.113331846487
0.113331860452
0.113331878967
0.11333189495
0.113331910937
0.113331927145
0.113331942538
0.113331957676
0.113331972769
0.113331988468
0.113332004952
0.113332022346
0.113332040156
0.113332057868
0.113332075409
0.113332092372
0.113332107602
0.113332119272
0.113332130729
0.113332149358
0.11333217112
0.113332206964
0.113332249471
0.11333228679
0.113332316628
0.113332345959
0.113332375038
0.113332401425
0.113332426006
0.113332468314
0.113332494001
0.113332517469
0.113332542461
0.113332552896
0.113332564119
0.113332578003
0.113332592635
0.113332607119
0.1133326234
0.113332642576
0.113332659773
0.113332675194
0.113332691003
0.113332707509
0.113332724318
0.11333274082
0.113332757009
0.11333277242
0.113332786618
0.113332798391
0.113332818834
0.113332853487
0.113332897441
0.113332943257
0.113332985001
0.113333022878
0.113333057443
0.113333086729
0.11333311264
0.113333133415
0.113333152381
0.113333169094
0.113333186807
0.113333223548
0.11333327133
0.113333286501
0.113333297994
0.113333309876
0.113333324715
0.113333342159
0.113333360918
0.113333379012
0.113333394545
0.113333408669
0.113333423849
0.113333442795
0.113333472659
0.113333491892
0.113333509864
0.113333526676
0.113333543327
0.113333557036
0.113333572658
0.113333587749
0.113333605245
0.113333624197
0.1133336428
0.113333661323
0.113333680388
0.113333695401
0.113333717308
0.113333754545
0.113333805088
0.113333837523
0.113333879219
0.113333899061
0.113333917386
0.113333935081
0.113333950148
0.113333963699
0.113333977658
0.113333995266
0.113334014667
0.113334033752
0.113334052053
0.113334069599
0.113334085998
0.113334108204
0.113334139573
0.11333418398
0.113334218963
0.113334246807
0.11333427493
0.113334301422
0.11333432962
0.113334359639
0.11333438886
0.113334417386
0.113334447162
0.113334479779
0.113334516446
0.11333455673
0.11333459647
0.113334631991
0.113334664866
0.113334717052
0.11333474243
0.113334763264
0.113334775329
0.113334788806
0.113334807006
0.113334828136
0.113334846121
0.113334861118
0.113334874313
0.113334888498
0.113334907154
0.113334923125
0.113334953474
0.113334990051
0.113335014036
0.113335037477
0.113335050205
0.113335064743
0.113335092392
0.113335126603
0.113335141379
0.113335154467
0.11333517124
0.11333519735
0.113335232124
0.113335248101
0.113335259941
0.113335273295
0.113335289584
0.113335308162
0.113335326013
0.113335342217
0.113335360051
0.113335380077
0.113335398287
0.113335414571
0.113335431729
0.113335449601
0.113335467268
0.113335482738
0.113335498272
0.113335522296
0.113335547175
0.113335570281
0.113335615366
0.113335668
0.113335710996
0.113335748253
0.113335781796
0.113335810745
0.113335842933
0.113335871619
0.1133359068
0.113335947133
0.113335974235
0.113336000653
0.113336030687
0.113336059752
0.11333609102
0.113336122279
0.113336161948
0.113336191664
0.113336217884
0.113336241823
0.113336264948
0.113336287869
0.113336309463
0.113336330508
0.113336351823
0.113336374012
0.113336395849
0.113336422288
0.113336448158
0.11333647083
0.113336494943
0.113336522217
0.113336548083
0.113336573045
0.113336598075
0.113336621544
0.113336645478
0.113336670299
0.113336697816
0.113336728143
0.113336756437
0.113336784052
0.113336812008
0.11333684369
0.113336883794
0.113336927055
0.11333696714
0.113337034364
0.113337064854
0.113337088375
0.113337112694
0.113337141717
0.113337173372
0.113337204737
0.113337239571
0.113337268861
0.113337294182
0.113337317916
0.113337340427
0.113337362159
0.113337378751
0.113337392275
0.113337407613
0.113337421655
0.113337440796
0.113337464319
0.113337487959
0.113337508926
0.113337527695
0.113337545304
0.113337562566
0.113337577141
0.11333759171
0.113337607171
0.113337623361
0.113337641485
0.113337661989
0.113337684413
0.113337710414
0.113337740163
0.1133377676
0.113337792638
0.113337818742
0.113337845029
0.11333787051
0.113337896753
0.113337923674
0.113337951032
0.11333797747
0.113338002746
0.113338030445
0.113338066326
0.113338113965
0.113338162388
0.113338203397
0.113338248264
0.113338292307
0.113338330819
0.113338382132
0.113338421052
0.113338456576
0.113338492282
0.113338528372
0.113338556893
0.113338602142
0.113338640556
0.113338666896
0.113338693441
0.113338723353
0.113338755358
0.113338788119
0.113338824671
0.11333885701
0.113338883483
0.113338905637
0.11333892531
0.113338944648
0.113338964433
0.113338984122
0.113339006301
0.113339030937
0.113339050786
0.113339067771
0.113339085222
0.113339103939
0.113339123991
0.11333914719
0.113339172504
0.113339193075
0.113339206889
0.113339219167
0.113339226089
0.113339237015
0.113339256124
0.113339284048
0.113339317487
0.113339348783
0.113339359804
0.113339372487
0.113339383835
0.113339401251
0.113339425293
0.113339451156
0.11333947934
0.113339508987
0.113339543524
0.113339573501
0.113339601511
0.113339636534
0.113339668454
0.113339713948
0.113339790864
0.113339860922
0.113339889926
0.113339942853
0.11333998858
0.113340029971
0.113340088117
0.11334013298
0.113340171824
0.113340206486
0.113340234201
0.113340258262
0.113340281415
0.113340310767
0.113340345014
0.113340375353
0.113340401347
0.113340424991
0.113340446148
0.113340469108
0.113340492007
0.113340516108
0.113340541062
0.113340567058
0.113340593984
0.113340620161
0.113340644473
0.113340668804
0.113340695903
0.113340724034
0.113340750865
0.113340777138
0.113340803917
0.113340832847
0.113340864645
0.11334089659
0.113340927546
0.113340957314
0.113340986843
0.11334101722
0.113341050946
0.113341089239
0.113341130275
0.113341167033
0.113341220079
0.113341266581
0.11334131048
0.113341360145
0.11334140637
0.113341445401
0.1133414905
0.113341523185
0.113341549761
0.11334157237
0.113341595525
0.113341618718
0.113341643897
0.113341668137
0.113341690147
0.113341706649
0.113341719827
0.113341726747
0.113341738608
0.113341759663
0.113341793612
0.113341814494
0.113341829893
0.113341843066
0.113341855598
0.113341868647
0.113341881903
0.113341904876
0.113341933574
0.113341967741
0.113342005686
0.113342049791
0.113342075671
0.113342138961
0.113342251884
0.113342328813
0.113342360698
0.11334239525
0.113342421583
0.113342437842
0.113342458411
0.113342475267
0.113342503806
0.113342523462
0.113342542209
0.113342558568
0.113342576504
0.11334259282
0.113342614858
0.113342637795
0.11334266362
0.113342676715
0.113342688653
0.113342701239
0.11334271569
0.113342729708
0.113342751543
0.113342775344
0.113342803333
0.113342833373
0.113342859145
0.113342886109
0.113342914246
0.113342943347
0.113342987876
0.113343022478
0.11334305475
0.113343135819
0.113343224801
0.113343270146
0.113343299967
0.11334333936
0.113343381808
0.113343416101
0.113343452879
0.113343482726
0.11334351311
0.113343539565
0.113343563258
0.113343584114
0.113343606933
0.113343631114
0.113343659683
0.113343687192
0.113343715075
0.113343744064
0.113343773097
0.113343802058
0.113343832684
0.113343864865
0.113343892121
0.113343917554
0.113343949263
0.113343977273
0.113344009946
0.113344037743
0.113344062206
0.113344113377
0.113344158764
0.113344203936
0.113344244896
0.113344280552
0.113344316887
0.113344355527
0.11334438885
0.113344418926
0.113344449918
0.113344492544
0.113344531472
0.113344562406
0.113344593258
0.113344624717
0.113344662331
0.113344699007
0.113344733064
0.113344763603
0.113344795573
0.113344824805
0.113344853475
0.113344883285
0.113344917719
0.113344952613
0.113344986061
0.113345015178
0.113345040573
0.113345064426
0.113345088661
0.113345114808
0.113345145136
0.113345178037
0.113345210118
0.113345239365
0.11334526576
0.113345292905
0.113345322484
0.113345355037
0.11334538649
0.113345428501
0.113345468935
0.113345506005
0.113345536892
0.113345566819
0.113345592837
0.113345629094
0.113345677822
0.113345714162
0.113345749188
0.113345788492
0.113345837667
0.113345883678
0.113345934654
0.11334599076
0.113346023257
0.113346053162
0.113346089622
0.113346131136
0.113346165587
0.113346202506
0.113346244483
0.113346279937
0.113346309652
0.113346337241
0.113346363954
0.113346389638
0.113346416978
0.113346448053
0.113346482419
0.113346513853
0.113346538933
0.113346563593
0.113346583013
0.113346597734
0.113346611859
0.11334662912
0.113346648849
0.113346672036
0.113346696034
0.113346719911
0.113346742654
0.113346763646
0.113346785881
0.113346807774
0.113346831631
0.113346859023
0.113346886236
0.113346916982
0.11334694644
0.113346973812
0.113347019183
0.113347057914
0.113347095164
0.113347132736
0.113347172778
0.113347218283
0.113347274198
0.113347328209
0.113347372897
0.113347411891
0.113347449741
0.113347503943
0.113347591895
0.113347667496
0.113347714602
0.113347756621
0.113347799727
0.113347840178
0.113347877139
0.113347916486
0.113347953262
0.11334798566
0.113348026752
0.113348056111
0.113348080306
0.113348107991
0.11334814041
0.113348171721
0.113348203255
0.113348234645
0.113348261843
0.113348289636
0.113348308879
0.113348322764
0.113348332641
0.113348346827
0.113348366935
0.11334839538
0.113348431942
0.113348464519
0.113348490188
0.113348513275
0.113348534557
0.113348572911
0.113348610897
0.113348645097
0.113348680268
0.113348718829
0.113348762804
0.113348804032
0.113348847506
0.113348924213
0.113349012383
0.11334906052
0.113349078313
0.113349111595
0.113349147941
0.113349185234
0.113349219339
0.113349248715
0.11334926213
0.113349276308
0.113349307815
0.113349356325
0.113349390742
0.11334941507
0.113349430682
0.113349447908
0.113349474338
0.113349502962
0.113349526854
0.113349535499
0.113349543238
0.113349557438
0.113349582338
0.113349615607
0.113349646881
0.113349669463
0.113349687073
0.113349703653
0.113349722862
0.113349750921
0.113349779597
0.113349818058
0.113349857891
0.113349892925
0.11334992853
0.113349964101
0.113349998124
0.113350040078
0.113350116632
0.113350179876
0.11335020864
0.11335024042
0.11335028075
0.11335032454
0.113350354884
0.113350394577
0.113350424206
0.113350444134
0.113350471473
0.113350509093
0.113350540108
0.113350575781
0.113350614591
0.113350658412
0.113350705676
0.113350744698
0.113350785578
0.113350848996
0.113350937328
0.113351005979
0.113351044752
0.113351077467
0.113351108689
0.113351136923
0.113351174122
0.113351222627
0.113351284079
0.113351338598
0.113351364919
0.113351391556
0.113351420981
0.113351452615
0.11335148563
0.113351524351
0.113351556821
0.113351586172
0.113351616425
0.113351646841
0.113351677221
0.113351713904
0.113351746305
0.113351774494
0.113351798408
0.113351823358
0.113351851222
0.113351887292
0.113351924758
0.113351953901
0.113351986117
0.113352032111
0.113352066061
0.113352090359
0.113352130037
0.113352168226
0.113352191579
0.113352235591
0.113352271214
0.113352304614
0.113352337023
0.113352373131
0.113352412626
0.113352449055
0.113352486113
0.113352527984
0.113352574121
0.113352620439
0.113352665172
0.113352712575
0.113352762904
0.113352810705
0.113352856797
0.113352906634
0.113352957256
0.113353003143
0.113353043445
0.113353080222
0.113353117491
0.113353166404
0.113353238434
0.113353328326
0.113353401945
0.113353454512
0.113353500021
0.113353544172
0.113353584712
0.113353621607
0.11335365684
0.113353690847
0.113353723501
0.113353761138
0.113353804269
0.113353857198
0.113353912447
0.113353962911
0.113353980647
0.113354010504
0.113354041996
0.113354071599
0.113354104848
0.113354136088
0.113354167202
0.113354198983
0.113354232477
0.113354263851
0.113354288845
0.113354314236
0.113354333053
0.113354356673
0.11335437972
0.113354411937
0.113354450399
0.113354484377
0.113354507617
0.113354523502
0.113354538045
0.113354559004
0.113354590393
0.113354625305
0.113354652941
0.113354672013
0.11335469107
0.113354717068
0.113354750513
0.113354786437
0.113354817556
0.113354835387
0.113354868052
0.113354898776
0.113354930233
0.113354963681
0.113355016559
0.11335504995
0.113355072186
0.113355112393
0.113355187613
0.113355289162
0.113355363552
0.113355394813
0.113355410051
0.113355430313
0.113355450138
0.113355487685
0.113355517646
0.113355541084
0.113355556171
0.113355572934
0.113355602787
0.113355644192
0.11335567707
0.113355714833
0.113355756363
0.113355793715
0.113355824668
0.113355852363
0.113355881893
0.113355919081
0.113355954677
0.113356007593
0.113356073661
0.113356142795
0.113356182278
0.113356221318
0.113356240967
0.113356269248
0.113356302969
0.113356338385
0.113356369462
0.113356403721
0.113356437106
0.113356468059
0.113356494043
0.113356507441
0.11335651238
0.11335652082
0.113356532581
0.113356551145
0.113356572518
0.113356592417
0.113356611251
0.113356627081
0.113356640234
0.113356654588
0.113356674389
0.113356702111
0.113356734161
0.11335676603
0.11335679478
0.113356833283
0.113356863354
0.113356893393
0.113356924788
0.113356958239
0.113356991883
0.113357021947
0.113357048088
0.113357082482
0.113357125959
0.113357170927
0.113357218003
0.113357273655
0.113357340174
0.113357409733
0.113357469469
0.113357519886
0.113357563797
0.113357608591
0.113357654127
0.113357704493
0.113357763863
0.113357824193
0.113357878445
0.113357928413
0.113357976025
0.11335802885
0.113358100853
0.113358189026
0.11335825679
0.113358300724
0.113358334177
0.113358365157
0.113358398647
0.113358434646
0.113358464935
0.113358496425
0.113358541141
0.113358582721
0.113358619074
0.113358654301
0.113358689986
0.113358725952
0.11335876261
0.113358804781
0.113358845034
0.113358880059
0.113358913026
0.113358954606
0.113358999151
0.11335904155
0.113359079121
0.113359117347
0.113359151085
0.113359193925
0.11335921292
0.113359246978
0.113359274805
0.11335931169
0.113359337818
0.113359365703
0.113359398755
0.113359425749
0.113359460976
0.113359503275
0.113359535282
0.113359566485
0.113359591743
0.113359619524
0.113359667343
0.113359745212
0.113359842132
0.11335993022
0.113360007329
0.113360082645
0.11336016256
0.113360250045
0.113360331383
0.113360374897
0.113360391171
0.113360406941
0.113360428659
0.113360451066
0.113360480039
0.113360515728
0.113360547023
0.113360572331
0.113360581021
0.113360589868
0.113360608747
0.113360645328
0.113360686448
0.113360715528
0.113360750092
0.113360781514
0.113360814201