/*--------------------------------*- C++ -*----------------------------------*\
  =========                 |
  \\      /  F ield         | OpenFOAM: The Open Source CFD Toolbox
   \\    /   O peration     | Website:  https://openfoam.org
    \\  /    A nd           | Version:  6
     \\/     M anipulation  |
\*---------------------------------------------------------------------------*/
FoamFile
{
    version     2.0;
    format      ascii;
    class       volScalarField;
    location    "0.0004225";
    object      H2O2;
}
// * * * * * * * * * * * * * * * * * * * * * * * * * * * * * * * * * * * * * //

dimensions      [0 0 0 0 0 0 0];

internalField   nonuniform List<scalar> 
32000
(
7.38263625138e-07
7.38263675481e-07
7.38263713523e-07
7.38263666805e-07
7.38263628151e-07
7.38263611611e-07
7.38263488788e-07
7.38263337009e-07
7.38263235841e-07
7.38263133333e-07
7.38262969775e-07
7.38262681573e-07
7.38262381595e-07
7.38262163205e-07
7.38262036781e-07
7.38261952738e-07
7.38261692172e-07
7.38261266267e-07
7.3826074699e-07
7.38260204874e-07
7.3825970662e-07
7.3825931246e-07
7.38258913559e-07
7.3825855162e-07
7.3825802161e-07
7.38257376813e-07
7.38256704761e-07
7.38256016951e-07
7.38255422263e-07
7.38254947721e-07
7.38254397925e-07
7.38253674119e-07
7.38252810496e-07
7.38251974012e-07
7.38251201673e-07
7.38250647716e-07
7.38250062843e-07
7.38249439676e-07
7.38248633771e-07
7.38247713138e-07
7.3824655995e-07
7.38245666079e-07
7.38244855581e-07
7.38243960355e-07
7.38242821818e-07
7.38241610828e-07
7.382403224e-07
7.38239097721e-07
7.38238041323e-07
7.38236980928e-07
7.38236108111e-07
7.38235500637e-07
7.38234834479e-07
7.38234142085e-07
7.38233325649e-07
7.38232201585e-07
7.38230681226e-07
7.38229208182e-07
7.38227610683e-07
7.38226044871e-07
7.38224715206e-07
7.3822342605e-07
7.38221986508e-07
7.38220662717e-07
7.38219203817e-07
7.38217796741e-07
7.38216348552e-07
7.38214964448e-07
7.38213529032e-07
7.38212364498e-07
7.38210951155e-07
7.38209517407e-07
7.3820787095e-07
7.38206166017e-07
7.38204265696e-07
7.38201898031e-07
7.38199952118e-07
7.38198041778e-07
7.38196417499e-07
7.38194708675e-07
7.38193408659e-07
7.38192020127e-07
7.38190350004e-07
7.38188319053e-07
7.38186227059e-07
7.38183881317e-07
7.38181615224e-07
7.38179513169e-07
7.3817754475e-07
7.38175786257e-07
7.3817391651e-07
7.38172639284e-07
7.3817161599e-07
7.38170090805e-07
7.3816829376e-07
7.38166386373e-07
7.38164362834e-07
7.38161705965e-07
7.38159018278e-07
7.3815627401e-07
7.38153786817e-07
7.3815084261e-07
7.38148403762e-07
7.38145634198e-07
7.38143186982e-07
7.38141195412e-07
7.38139283514e-07
7.38137777314e-07
7.38136595343e-07
7.3813516969e-07
7.38133469265e-07
7.38131602199e-07
7.38129347106e-07
7.38127116327e-07
7.38124757261e-07
7.3812144628e-07
7.38118952593e-07
7.38115269319e-07
7.38112157464e-07
7.38109406208e-07
7.38105997171e-07
7.38103305263e-07
7.38099992416e-07
7.38096976392e-07
7.38094568167e-07
7.3809186859e-07
7.38089737052e-07
7.38088008229e-07
7.38085849939e-07
7.38083683258e-07
7.38080306419e-07
7.38077065071e-07
7.38073219127e-07
7.38070149084e-07
7.3806654765e-07
7.38063653688e-07
7.38061306055e-07
7.38058908314e-07
7.38055524947e-07
7.38053218655e-07
7.38050326631e-07
7.38048148235e-07
7.38045075085e-07
7.38042714411e-07
7.38039547921e-07
7.38035972338e-07
7.38033173696e-07
7.38028690508e-07
7.38025343063e-07
7.38022383052e-07
7.38018720621e-07
7.38014215263e-07
7.38010624921e-07
7.38006719901e-07
7.38003139324e-07
7.37999351052e-07
7.37996255601e-07
7.37991743433e-07
7.37988807988e-07
7.37984933734e-07
7.37980991032e-07
7.3797808916e-07
7.37975546486e-07
7.37973226447e-07
7.37971181228e-07
7.37969436313e-07
7.37967231511e-07
7.37965004232e-07
7.37961782121e-07
7.37959046046e-07
7.37955272905e-07
7.37950570365e-07
7.37947687515e-07
7.37943339333e-07
7.37938236693e-07
7.37934525885e-07
7.37928739311e-07
7.37923595955e-07
7.37919865142e-07
7.37915199133e-07
7.37910169012e-07
7.37905982357e-07
7.37902477454e-07
7.37899098412e-07
7.3789528551e-07
7.37891112897e-07
7.37887923255e-07
7.37884132404e-07
7.37880587324e-07
7.37877820617e-07
7.37873143524e-07
7.37870005897e-07
7.37865529586e-07
7.37860663268e-07
7.37857066105e-07
7.37851735432e-07
7.37846819568e-07
7.37841177104e-07
7.37837695036e-07
7.37833131616e-07
7.37827211882e-07
7.37823678783e-07
7.37819797353e-07
7.37815561732e-07
7.37811623671e-07
7.37808408323e-07
7.37805242295e-07
7.37802620118e-07
7.3779985425e-07
7.37797348829e-07
7.3779420674e-07
7.3779111136e-07
7.3778689198e-07
7.37781448961e-07
7.37776947864e-07
7.37772826916e-07
7.37767413173e-07
7.37760116638e-07
7.37755369669e-07
7.37748932983e-07
7.37744227138e-07
7.3773724786e-07
7.37732909944e-07
7.377274856e-07
7.37721211322e-07
7.37713904418e-07
7.37709141127e-07
7.37705239335e-07
7.37699444429e-07
7.37693756535e-07
7.37690209755e-07
7.37685925207e-07
7.37680876816e-07
7.37677812883e-07
7.37674154003e-07
7.37669138452e-07
7.37664905542e-07
7.3766075532e-07
7.37656640399e-07
7.37649636792e-07
7.37644997158e-07
7.37638921672e-07
7.37633911159e-07
7.3762908051e-07
7.37622414342e-07
7.37614655024e-07
7.37610690346e-07
7.37604938353e-07
7.37598414749e-07
7.37594507861e-07
7.37588422848e-07
7.37582592261e-07
7.37578820341e-07
7.37572913219e-07
7.37568338929e-07
7.37564969564e-07
7.37560675717e-07
7.37556239693e-07
7.37552490849e-07
7.37547718505e-07
7.37542122134e-07
7.37538567719e-07
7.3753373242e-07
7.37526494699e-07
7.37522352985e-07
7.37517104611e-07
7.37509505825e-07
7.37503121879e-07
7.3749651493e-07
7.37488021394e-07
7.37482907313e-07
7.37478098636e-07
7.37471428043e-07
7.37462618354e-07
7.37456431275e-07
7.37452191932e-07
7.37446370018e-07
7.37438803583e-07
7.37432216578e-07
7.37428471409e-07
7.37423327578e-07
7.37416019338e-07
7.37411819219e-07
7.37407547678e-07
7.37401770171e-07
7.37395305912e-07
7.37389117919e-07
7.37383626934e-07
7.3737805118e-07
7.37371169138e-07
7.37364391853e-07
7.37358725036e-07
7.37353374139e-07
7.37346182729e-07
7.37338609676e-07
7.3733090203e-07
7.3732681605e-07
7.37321031846e-07
7.37312639464e-07
7.3730823157e-07
7.37301033858e-07
7.37295518573e-07
7.37290834969e-07
7.37283847201e-07
7.37276696008e-07
7.37272588643e-07
7.37266182247e-07
7.37259325844e-07
7.37253686844e-07
7.37247218592e-07
7.37242339162e-07
7.37236304854e-07
7.3722689486e-07
7.37219080672e-07
7.37214059489e-07
7.37204703364e-07
7.37199375557e-07
7.37193486538e-07
7.37184311643e-07
7.37175108807e-07
7.37170456909e-07
7.37165209079e-07
7.37157701478e-07
7.37147862234e-07
7.37142717607e-07
7.3713778951e-07
7.37130763851e-07
7.37122620165e-07
7.37114963656e-07
7.37109361656e-07
7.37103774792e-07
7.37096996927e-07
7.37090095774e-07
7.37083263364e-07
7.37077741848e-07
7.37073158894e-07
7.37068136086e-07
7.37061024879e-07
7.37053894847e-07
7.37047111897e-07
7.37038691776e-07
7.37032013079e-07
7.37026639141e-07
7.37021552344e-07
7.37013372066e-07
7.37004958791e-07
7.36999210602e-07
7.36993064742e-07
7.36983447097e-07
7.3697391497e-07
7.36969030932e-07
7.36961840759e-07
7.36950047466e-07
7.36940599951e-07
7.36935396258e-07
7.36927644571e-07
7.36917548143e-07
7.3690749607e-07
7.36901278067e-07
7.36894271021e-07
7.36884140436e-07
7.36876899673e-07
7.36870141833e-07
7.36861854431e-07
7.36856805133e-07
7.36849070108e-07
7.36839619032e-07
7.36831607748e-07
7.36824668231e-07
7.36816448173e-07
7.36809141819e-07
7.36801233868e-07
7.36794123779e-07
7.36786577844e-07
7.36777767831e-07
7.36769026794e-07
7.36760387694e-07
7.36752713582e-07
7.36745962164e-07
7.36738696665e-07
7.36730079017e-07
7.36720449512e-07
7.36711712949e-07
7.36706333929e-07
7.36701081028e-07
7.36693573999e-07
7.36684131811e-07
7.36676215971e-07
7.36670693151e-07
7.36665395338e-07
7.36657661842e-07
7.36650208807e-07
7.3664298119e-07
7.36635561248e-07
7.36626410804e-07
7.36618958667e-07
7.36611634607e-07
7.36604182115e-07
7.36595380842e-07
7.36586015838e-07
7.36576623121e-07
7.36571617508e-07
7.36563707715e-07
7.36551534574e-07
7.36541811498e-07
7.36536485718e-07
7.36529295032e-07
7.36518983495e-07
7.36509059648e-07
7.3649952131e-07
7.36490419166e-07
7.3648317799e-07
7.36477080479e-07
7.3647018283e-07
7.36460646286e-07
7.36448551165e-07
7.36437641825e-07
7.36430185555e-07
7.36424277388e-07
7.36413594313e-07
7.36401364397e-07
7.36390572587e-07
7.36382943927e-07
7.3637339862e-07
7.36365927311e-07
7.36355016213e-07
7.36339982902e-07
7.36327309772e-07
7.36321408279e-07
7.36314522478e-07
7.36305415429e-07
7.36294605555e-07
7.36283913046e-07
7.36274071137e-07
7.36265957139e-07
7.36258675186e-07
7.36250461792e-07
7.36243608579e-07
7.36239268325e-07
7.36230915136e-07
7.36221532566e-07
7.36217011048e-07
7.36210524969e-07
7.36200901077e-07
7.36191191727e-07
7.36185734777e-07
7.36179282251e-07
7.361687953e-07
7.36155314068e-07
7.36142873535e-07
7.36131681501e-07
7.36122520977e-07
7.36115058796e-07
7.36106696645e-07
7.36097355369e-07
7.36086326533e-07
7.36074432046e-07
7.36062957428e-07
7.36052623951e-07
7.36042210767e-07
7.36033344743e-07
7.36024533916e-07
7.36017615152e-07
7.36009306349e-07
7.36000275927e-07
7.35994068261e-07
7.35987099022e-07
7.35978072563e-07
7.35973358325e-07
7.35966139233e-07
7.35956452554e-07
7.35946139356e-07
7.35936779108e-07
7.35927432172e-07
7.35918672795e-07
7.35910890444e-07
7.35901557126e-07
7.35889050323e-07
7.35878703979e-07
7.35868237252e-07
7.35860367467e-07
7.3585466435e-07
7.35841964736e-07
7.35831005872e-07
7.35825301303e-07
7.35816923918e-07
7.35809062558e-07
7.35800778984e-07
7.35791163208e-07
7.35783841493e-07
7.35779360676e-07
7.3577271569e-07
7.35759754164e-07
7.35753362506e-07
7.35748014898e-07
7.35740441987e-07
7.35734747292e-07
7.35726365559e-07
7.35715261845e-07
7.35702449931e-07
7.35689062694e-07
7.35678964148e-07
7.35672428729e-07
7.35660775714e-07
7.35647782704e-07
7.35640918392e-07
7.35630799897e-07
7.35620084422e-07
7.35607504107e-07
7.35593501535e-07
7.35578987061e-07
7.3556951078e-07
7.35563857221e-07
7.35554316325e-07
7.35543763452e-07
7.35532745822e-07
7.3551973255e-07
7.35509305435e-07
7.35502792389e-07
7.35497430231e-07
7.35488610036e-07
7.35477840831e-07
7.35470900675e-07
7.35466170927e-07
7.35455258312e-07
7.35446901079e-07
7.35442082493e-07
7.35434351416e-07
7.35425398905e-07
7.35419221832e-07
7.35414353872e-07
7.35402883827e-07
7.3539001718e-07
7.35385010869e-07
7.35377409194e-07
7.35370922018e-07
7.3536487258e-07
7.35352128926e-07
7.3533972299e-07
7.35330497842e-07
7.3532522293e-07
7.35317378219e-07
7.35303223153e-07
7.35294466717e-07
7.35286169249e-07
7.3527762801e-07
7.35268211213e-07
7.35256768291e-07
7.35246995274e-07
7.35236866336e-07
7.35225856023e-07
7.35219784287e-07
7.35213843133e-07
7.35201078953e-07
7.35188220487e-07
7.35177322918e-07
7.35171602107e-07
7.35165282668e-07
7.35152213027e-07
7.35141700723e-07
7.35134916476e-07
7.35125643759e-07
7.35117298611e-07
7.3510828837e-07
7.35099824525e-07
7.35090589734e-07
7.35081360847e-07
7.35074085576e-07
7.35065852619e-07
7.35059911886e-07
7.35045803857e-07
7.35038349472e-07
7.35031129772e-07
7.35023189055e-07
7.35013061765e-07
7.35005255914e-07
7.34999537128e-07
7.34991314701e-07
7.34977755686e-07
7.34966498432e-07
7.34957105525e-07
7.34947337255e-07
7.34937153048e-07
7.34927631276e-07
7.34913855341e-07
7.34907423156e-07
7.34897012096e-07
7.34889649744e-07
7.34882006941e-07
7.3487305381e-07
7.34862415243e-07
7.34851176931e-07
7.34844730016e-07
7.34834162128e-07
7.34823956274e-07
7.34813645166e-07
7.34803936877e-07
7.34798763072e-07
7.34787998548e-07
7.34777903691e-07
7.34771516537e-07
7.34761795033e-07
7.34756293356e-07
7.34749677608e-07
7.34742911725e-07
7.34737957635e-07
7.34730038625e-07
7.34718512725e-07
7.34708434427e-07
7.34700487593e-07
7.34687457945e-07
7.34681627059e-07
7.34676734857e-07
7.34668259861e-07
7.34658971068e-07
7.3464722038e-07
7.3463625733e-07
7.34627603121e-07
7.34615770474e-07
7.34607465641e-07
7.34598177005e-07
7.34591822757e-07
7.34581168394e-07
7.34569631836e-07
7.34556820114e-07
7.34547143508e-07
7.34536617999e-07
7.34527459194e-07
7.34518538093e-07
7.34507804117e-07
7.34498247605e-07
7.34489869206e-07
7.34482811675e-07
7.34478626556e-07
7.34472002022e-07
7.34462536113e-07
7.34453241518e-07
7.34444921811e-07
7.34438553023e-07
7.34432037301e-07
7.34422150318e-07
7.34408870926e-07
7.34403044386e-07
7.34398480514e-07
7.34390433052e-07
7.34381530665e-07
7.34373096462e-07
7.34365912951e-07
7.34355741334e-07
7.34343113732e-07
7.3433358107e-07
7.34322692458e-07
7.34309161655e-07
7.34296824266e-07
7.34286173052e-07
7.34279377938e-07
7.34271379291e-07
7.34263403538e-07
7.34255394603e-07
7.34244979908e-07
7.34234582037e-07
7.34225989706e-07
7.34221513041e-07
7.34217181875e-07
7.34209888235e-07
7.3419937612e-07
7.34187795437e-07
7.34181366054e-07
7.34176088119e-07
7.34168936243e-07
7.34163027632e-07
7.34157111892e-07
7.34147915481e-07
7.34135380087e-07
7.34127669864e-07
7.34118565684e-07
7.34107840167e-07
7.3409649287e-07
7.34085516064e-07
7.34073947206e-07
7.34065134127e-07
7.34055046542e-07
7.34045543884e-07
7.34036419228e-07
7.34027620924e-07
7.3401982814e-07
7.34016032081e-07
7.34009972287e-07
7.33998224874e-07
7.3398686935e-07
7.3397902994e-07
7.33972527708e-07
7.33967478524e-07
7.33960010153e-07
7.3394568993e-07
7.33935344897e-07
7.33930233746e-07
7.33922441457e-07
7.33917150983e-07
7.33904376541e-07
7.33892456033e-07
7.33886014098e-07
7.33874646954e-07
7.33867021476e-07
7.33857669522e-07
7.33847484993e-07
7.33839918527e-07
7.33829703429e-07
7.33816535341e-07
7.33808050868e-07
7.33797220471e-07
7.33787078427e-07
7.33778444953e-07
7.33769539818e-07
7.3375941943e-07
7.33749900544e-07
7.33741261618e-07
7.3373502182e-07
7.33731172356e-07
7.33724736285e-07
7.33716380755e-07
7.33708778896e-07
7.3370210865e-07
7.3369551291e-07
7.33687896548e-07
7.33677397617e-07
7.3366981855e-07
7.3366601163e-07
7.3366106517e-07
7.33655590341e-07
7.33642001924e-07
7.33632483968e-07
7.33627926853e-07
7.33621322461e-07
7.33611820016e-07
7.33601100572e-07
7.33591782033e-07
7.33584332572e-07
7.33579614346e-07
7.33568148377e-07
7.33552134289e-07
7.33545850658e-07
7.33540250233e-07
7.33531011316e-07
7.33525622895e-07
7.33521386092e-07
7.33513237166e-07
7.33502206913e-07
7.33490555086e-07
7.3348088067e-07
7.33476659717e-07
7.33468294717e-07
7.33462774209e-07
7.33456883192e-07
7.33447047289e-07
7.33436532803e-07
7.33427101199e-07
7.33418648402e-07
7.33410684174e-07
7.33403608205e-07
7.33397677932e-07
7.33392495039e-07
7.3338711534e-07
7.3338064837e-07
7.3337215111e-07
7.33360087816e-07
7.33353046809e-07
7.33350251703e-07
7.3334457909e-07
7.33335490566e-07
7.33321982865e-07
7.33311593586e-07
7.3330094122e-07
7.33290397442e-07
7.33285836809e-07
7.33278212929e-07
7.33267963125e-07
7.33256631616e-07
7.33248003252e-07
7.33243737688e-07
7.3323661776e-07
7.33223503775e-07
7.33209511125e-07
7.33204674219e-07
7.3319706112e-07
7.33190598311e-07
7.33184891362e-07
7.33175088846e-07
7.33162752366e-07
7.33152454456e-07
7.3314446707e-07
7.33132018338e-07
7.33126253902e-07
7.33117739368e-07
7.33109180093e-07
7.33105593662e-07
7.33101749303e-07
7.33095960761e-07
7.33088407585e-07
7.33080172037e-07
7.33073261153e-07
7.33066461133e-07
7.3305945118e-07
7.33052091233e-07
7.33043505446e-07
7.33036047104e-07
7.33028751633e-07
7.33021934845e-07
7.33015086076e-07
7.330082337e-07
7.33000911765e-07
7.32993513957e-07
7.32986530509e-07
7.32980388148e-07
7.32974512597e-07
7.32968651115e-07
7.32962455631e-07
7.32956681566e-07
7.32951288374e-07
7.32944720207e-07
7.32937917941e-07
7.32931411128e-07
7.32925101948e-07
7.32918555367e-07
7.32912423858e-07
7.3290440055e-07
7.32891373324e-07
7.32882795487e-07
7.32879088555e-07
7.32871997026e-07
7.32860552922e-07
7.32849603973e-07
7.32842803626e-07
7.32836819996e-07
7.32828109921e-07
7.32819803728e-07
7.32811963362e-07
7.32801819477e-07
7.32793838859e-07
7.3278509063e-07
7.32777435965e-07
7.3277344169e-07
7.32767129546e-07
7.32757873112e-07
7.32749781836e-07
7.32744028829e-07
7.32738838057e-07
7.32734616125e-07
7.32729663903e-07
7.32724134448e-07
7.32718353459e-07
7.32712911341e-07
7.32707179311e-07
7.32701809894e-07
7.32695685669e-07
7.32689384172e-07
7.32683296508e-07
7.32676247718e-07
7.32667732779e-07
7.32658529252e-07
7.32650804679e-07
7.32643832484e-07
7.32636160517e-07
7.3262772556e-07
7.32623352715e-07
7.3261909869e-07
7.32613348291e-07
7.3260658009e-07
7.32599123487e-07
7.32591476177e-07
7.32584671642e-07
7.32578754417e-07
7.32573478656e-07
7.32568562612e-07
7.32564155636e-07
7.32558757493e-07
7.32552452216e-07
7.32545735018e-07
7.32537448311e-07
7.32525747473e-07
7.32514777302e-07
7.32511363714e-07
7.32506276545e-07
7.32499935689e-07
7.32491796461e-07
7.32482715026e-07
7.32474730148e-07
7.32468916096e-07
7.32465585936e-07
7.32459670199e-07
7.324506138e-07
7.32441768289e-07
7.32434774852e-07
7.32428639828e-07
7.32423535785e-07
7.32419707904e-07
7.32416573413e-07
7.32413631027e-07
7.32410393182e-07
7.32406810422e-07
7.32403293043e-07
7.32399550723e-07
7.32395259856e-07
7.32389003877e-07
7.3238266954e-07
7.32375646331e-07
7.32372303858e-07
7.3236702372e-07
7.32359483963e-07
7.32351528563e-07
7.32344710915e-07
7.32340235092e-07
7.32333012721e-07
7.3232230512e-07
7.32311518112e-07
7.32299135748e-07
7.32290752469e-07
7.32287014702e-07
7.32280610286e-07
7.32272919315e-07
7.32265618893e-07
7.32261616232e-07
7.32258466168e-07
7.32253756511e-07
7.32248802834e-07
7.32245333456e-07
7.32243227594e-07
7.32242416123e-07
7.32242461952e-07
7.3224300493e-07
7.32243040773e-07
7.32242660501e-07
7.32241569512e-07
7.32239698042e-07
7.32237153822e-07
7.32234057569e-07
7.32230391865e-07
7.3222583359e-07
7.32221141752e-07
7.32216009969e-07
7.32211427711e-07
7.32204911089e-07
7.32194331298e-07
7.32189519929e-07
7.32186152389e-07
7.32181099917e-07
7.32173540011e-07
7.32165173231e-07
7.32157118974e-07
7.32149258391e-07
7.32141002499e-07
7.32131711246e-07
7.32120499234e-07
7.32110783675e-07
7.32102756728e-07
7.32094747791e-07
7.32086314758e-07
7.32077155877e-07
7.32069247731e-07
7.3206262613e-07
7.32055671947e-07
7.3204825349e-07
7.32040577705e-07
7.32032990536e-07
7.32026096074e-07
7.32020566012e-07
7.3201772966e-07
7.32015647169e-07
7.32013329624e-07
7.32012232769e-07
7.32012735523e-07
7.32016413297e-07
7.32022419879e-07
7.32026204243e-07
7.32027359005e-07
7.32027143876e-07
7.32026064831e-07
7.32023497784e-07
7.32017684334e-07
7.32012704047e-07
7.32010513989e-07
7.32006245341e-07
7.31998886628e-07
7.31990440265e-07
7.31980684958e-07
7.31972816695e-07
7.31964261861e-07
7.31955932961e-07
7.31951527742e-07
7.31946924141e-07
7.31942028975e-07
7.31938571474e-07
7.31935342223e-07
7.31932012153e-07
7.3192993932e-07
7.31929615023e-07
7.31930717171e-07
7.31933147766e-07
7.3193463626e-07
7.31934455191e-07
7.31932730218e-07
7.31928729489e-07
7.31925951553e-07
7.31921836631e-07
7.31918610677e-07
7.31911745228e-07
7.31900939556e-07
7.31889985522e-07
7.31885801969e-07
7.31879673168e-07
7.31869402693e-07
7.31858274658e-07
7.31853829527e-07
7.31849679733e-07
7.3184438473e-07
7.31837342854e-07
7.31829216499e-07
7.31822242886e-07
7.31817048286e-07
7.31814027666e-07
7.3181258961e-07
7.31811351209e-07
7.31811194203e-07
7.31812671391e-07
7.31817323384e-07
7.31824987307e-07
7.31831886776e-07
7.31837512292e-07
7.31843098351e-07
7.31846668104e-07
7.3184789703e-07
7.31847845827e-07
7.31847187395e-07
7.31845729486e-07
7.31842199574e-07
7.31838148799e-07
7.31836137616e-07
7.31832575693e-07
7.31827560854e-07
7.31824083288e-07
7.31819494248e-07
7.31813156675e-07
7.31807549797e-07
7.31802002467e-07
7.31796430405e-07
7.31790919584e-07
7.31785285154e-07
7.31779470921e-07
7.31773402622e-07
7.31767568004e-07
7.31761579169e-07
7.31755637104e-07
7.31749968131e-07
7.3174471012e-07
7.31740072611e-07
7.31736609117e-07
7.31734650606e-07
7.3173369135e-07
7.31733273966e-07
7.31733990598e-07
7.31736690043e-07
7.31740790855e-07
7.31744379725e-07
7.31746977812e-07
7.31748924862e-07
7.31750158707e-07
7.31751568955e-07
7.31753565275e-07
7.31754383666e-07
7.31754233889e-07
7.31753397158e-07
7.31751129691e-07
7.31749594957e-07
7.31747045735e-07
7.31742861887e-07
7.31737792392e-07
7.3173282629e-07
7.31727878497e-07
7.3172237036e-07
7.31717130326e-07
7.31712045694e-07
7.31706718866e-07
7.31701323144e-07
7.31696061749e-07
7.31691325414e-07
7.31687334891e-07
7.3168441915e-07
7.31682848366e-07
7.31682575597e-07
7.31683801501e-07
7.31688220658e-07
7.31695731745e-07
7.31704341216e-07
7.31711735426e-07
7.31717378821e-07
7.31720876307e-07
7.31722228359e-07
7.31722181839e-07
7.31721821361e-07
7.31721587387e-07
7.31721752663e-07
7.31722776446e-07
7.3172450516e-07
7.31724709961e-07
7.31723914309e-07
7.31722219692e-07
7.31719054679e-07
7.31714737659e-07
7.31709919499e-07
7.31704790698e-07
7.31699835032e-07
7.3169537776e-07
7.31691597433e-07
7.31688866705e-07
7.31687317163e-07
7.31685751833e-07
7.31684312784e-07
7.31682109521e-07
7.31678682263e-07
7.3167415147e-07
7.31669775211e-07
7.3166507269e-07
7.31660844818e-07
7.31656435909e-07
7.31652098564e-07
7.31648381676e-07
7.31645623872e-07
7.31644241879e-07
7.31644327703e-07
7.31646168564e-07
7.31652031135e-07
7.31659878282e-07
7.31664521717e-07
7.31666025177e-07
7.31665734253e-07
7.31664572515e-07
7.31662275654e-07
7.3165910958e-07
7.3165565641e-07
7.31652078551e-07
7.31648104063e-07
7.3164417347e-07
7.31640597052e-07
7.31638198334e-07
7.31637245854e-07
7.31637768191e-07
7.31639898822e-07
7.3164474563e-07
7.31652216484e-07
7.31657119873e-07
7.31659972942e-07
7.31662364053e-07
7.3166450647e-07
7.31666926516e-07
7.31669935729e-07
7.31673617213e-07
7.31678210173e-07
7.31684129992e-07
7.31691666134e-07
7.31700834067e-07
7.31710923024e-07
7.31720440955e-07
7.31729162531e-07
7.31735952809e-07
7.31742890508e-07
7.31745051577e-07
7.31745258941e-07
7.31744340497e-07
7.31741821359e-07
7.31738481398e-07
7.31735247932e-07
7.31732646986e-07
7.31730407469e-07
7.31728229093e-07
7.31726192326e-07
7.3172512213e-07
7.31725747205e-07
7.31729745425e-07
7.31734981486e-07
7.31737268559e-07
7.31737719745e-07
7.31737457934e-07
7.31737818961e-07
7.31740306316e-07
7.31742420411e-07
7.31742376995e-07
7.31742096352e-07
7.31742579807e-07
7.31745440486e-07
7.31747493613e-07
7.31747338831e-07
7.31746202169e-07
7.31743751013e-07
7.31740325853e-07
7.31736381888e-07
7.31732723842e-07
7.31729846756e-07
7.31727814752e-07
7.31725716444e-07
7.31723191442e-07
7.31720399114e-07
7.31717496114e-07
7.31714928851e-07
7.31713026482e-07
7.31712223634e-07
7.31712936482e-07
7.31716416574e-07
7.31721914369e-07
7.31728690725e-07
7.31743381067e-07
7.31760176722e-07
7.31772988378e-07
7.31782683103e-07
7.3179009701e-07
7.31795962971e-07
7.31802817166e-07
7.31809420923e-07
7.31818029555e-07
7.31826739336e-07
7.31831258546e-07
7.3183487246e-07
7.31839425193e-07
7.31844038886e-07
7.31849758392e-07
7.31855555372e-07
7.31865268643e-07
7.3187169973e-07
7.31876537415e-07
7.31879928312e-07
7.31882114249e-07
7.31883178581e-07
7.31883460421e-07
7.31883630007e-07
7.3188397821e-07
7.31884971303e-07
7.31887370586e-07
7.31892551565e-07
7.31897335668e-07
7.31900609528e-07
7.31904110216e-07
7.31908471977e-07
7.31911829217e-07
7.31914493719e-07
7.31916987285e-07
7.3191896342e-07
7.31921169657e-07
7.31924000665e-07
7.31928352938e-07
7.31933937396e-07
7.31938936163e-07
7.31944143176e-07
7.31950309441e-07
7.31958979423e-07
7.31972401687e-07
7.31988809535e-07
7.32005222694e-07
7.3203159403e-07
7.32041327464e-07
7.32046478988e-07
7.32050716609e-07
7.32057208988e-07
7.32065209817e-07
7.32075842057e-07
7.32089499007e-07
7.32100353936e-07
7.32108706782e-07
7.32115225798e-07
7.32119798623e-07
7.32121763587e-07
7.32120838356e-07
7.32118860944e-07
7.32117270157e-07
7.32117309661e-07
7.32120189239e-07
7.32125618876e-07
7.32131319833e-07
7.321354309e-07
7.32138065428e-07
7.32139258305e-07
7.32139984108e-07
7.32139757401e-07
7.32140324119e-07
7.32141686288e-07
7.32144255305e-07
7.32148853605e-07
7.32155779387e-07
7.32164827602e-07
7.32177077353e-07
7.32191871865e-07
7.32204789221e-07
7.32215341824e-07
7.3222509103e-07
7.32233600378e-07
7.32240609725e-07
7.32247596969e-07
7.32255496793e-07
7.32264076586e-07
7.32273108607e-07
7.3228266567e-07
7.32295138227e-07
7.3231334328e-07
7.32338014731e-07
7.32362628795e-07
7.32383235106e-07
7.32406813473e-07
7.32431055088e-07
7.32452922798e-07
7.32482665208e-07
7.32504145324e-07
7.32522213874e-07
7.3253979251e-07
7.3255695506e-07
7.32569280524e-07
7.32592387631e-07
7.32611329529e-07
7.3262198535e-07
7.32632644279e-07
7.32647694535e-07
7.32665453097e-07
7.32688349942e-07
7.3271677849e-07
7.3274197389e-07
7.32761634461e-07
7.32776113671e-07
7.32786394833e-07
7.32795127485e-07
7.32804907317e-07
7.3281725635e-07
7.32833624623e-07
7.32852283362e-07
7.32865985251e-07
7.32876335773e-07
7.32887177044e-07
7.32899759702e-07
7.32914223634e-07
7.32931266448e-07
7.32947978791e-07
7.32959149367e-07
7.32963994555e-07
7.32966507145e-07
7.32967781666e-07
7.32971670412e-07
7.32983711531e-07
7.3300522144e-07
7.33031811871e-07
7.33053521934e-07
7.33059713869e-07
7.33065329645e-07
7.33070414792e-07
7.33080684213e-07
7.3309686661e-07
7.33115113149e-07
7.33135300086e-07
7.33156638995e-07
7.33181326582e-07
7.33201623632e-07
7.33220947366e-07
7.33247595616e-07
7.33272786052e-07
7.33309281724e-07
7.3336981398e-07
7.33424235945e-07
7.33446253997e-07
7.33486213663e-07
7.33520603079e-07
7.33551737238e-07
7.33599146533e-07
7.33636176026e-07
7.33668284319e-07
7.3369633642e-07
7.33716842586e-07
7.33733285168e-07
7.33750879272e-07
7.33777352188e-07
7.33810474357e-07
7.33839963086e-07
7.33865137078e-07
7.33888057347e-07
7.3390822388e-07
7.33930323971e-07
7.3395305188e-07
7.33978285336e-07
7.3400569963e-07
7.34035248753e-07
7.34066358431e-07
7.3409661201e-07
7.34124634702e-07
7.34152717436e-07
7.34183896166e-07
7.34215826464e-07
7.34245765038e-07
7.34274772673e-07
7.34304283956e-07
7.34336191126e-07
7.34371053752e-07
7.3440554111e-07
7.344382575e-07
7.34468972873e-07
7.34498632191e-07
7.34528379146e-07
7.34560546384e-07
7.34595741017e-07
7.34632580112e-07
7.34665827568e-07
7.34716363998e-07
7.34761924071e-07
7.34810283083e-07
7.34869821404e-07
7.34929826016e-07
7.34983488567e-07
7.35046985797e-07
7.35093011595e-07
7.3512916058e-07
7.35159363502e-07
7.35191381713e-07
7.35224934487e-07
7.35262240105e-07
7.35298100466e-07
7.35329434102e-07
7.35351540721e-07
7.35369080053e-07
7.35378602669e-07
7.35395750773e-07
7.35426851829e-07
7.35474074863e-07
7.35502356973e-07
7.35522316104e-07
7.35538763509e-07
7.35553774619e-07
7.35568945681e-07
7.35584332715e-07
7.3561079189e-07
7.35643190203e-07
7.35682325339e-07
7.35728123942e-07
7.35783176502e-07
7.35817628134e-07
7.3590932792e-07
7.36083013526e-07
7.36203849245e-07
7.36254572751e-07
7.3630960001e-07
7.36351283838e-07
7.36377261402e-07
7.36410539109e-07
7.3643836312e-07
7.36484880582e-07
7.36516103316e-07
7.36546023626e-07
7.36573943034e-07
7.36607568764e-07
7.36639801016e-07
7.36684578636e-07
7.36731795258e-07
7.36784880554e-07
7.36811969428e-07
7.36836516539e-07
7.36862475131e-07
7.36892025181e-07
7.36920711368e-07
7.36962781182e-07
7.37006807872e-07
7.37055574051e-07
7.37105771676e-07
7.37146861497e-07
7.37188538763e-07
7.37232215256e-07
7.37276315962e-07
7.37344302904e-07
7.37398495447e-07
7.37448846112e-07
7.37571105581e-07
7.37704204405e-07
7.37773292803e-07
7.3782026266e-07
7.37883318535e-07
7.37952796173e-07
7.38010614826e-07
7.3807627306e-07
7.38132509657e-07
7.38190845854e-07
7.38243162569e-07
7.38291261673e-07
7.3833477089e-07
7.38384698207e-07
7.38439041423e-07
7.38504066202e-07
7.38567514233e-07
7.38632614798e-07
7.38699522506e-07
7.38765402383e-07
7.38828836083e-07
7.38894054293e-07
7.38959918524e-07
7.3901501663e-07
7.39065232687e-07
7.39124767436e-07
7.3917750386e-07
7.3923721727e-07
7.39287486169e-07
7.3933161029e-07
7.39423734466e-07
7.39507015488e-07
7.39591231322e-07
7.39668588077e-07
7.39736747372e-07
7.39806576877e-07
7.39881459741e-07
7.39946812495e-07
7.40006386421e-07
7.40068513406e-07
7.40155236907e-07
7.40235115171e-07
7.40298459577e-07
7.40361778615e-07
7.40428159771e-07
7.40509429331e-07
7.40589548773e-07
7.40664840996e-07
7.40733273227e-07
7.40806668486e-07
7.4087545512e-07
7.40944431769e-07
7.4101732305e-07
7.41103048878e-07
7.41191217757e-07
7.41276828279e-07
7.41353318697e-07
7.41420727845e-07
7.41485524805e-07
7.41551416623e-07
7.41620237943e-07
7.41698565605e-07
7.41782636721e-07
7.41863224504e-07
7.41935368034e-07
7.41999958886e-07
7.42065397708e-07
7.4213478778e-07
7.42208631431e-07
7.42278213325e-07
7.42368701991e-07
7.4245501233e-07
7.42533652568e-07
7.42599891744e-07
7.42664313356e-07
7.42720360664e-07
7.42793901853e-07
7.42890336238e-07
7.42961840287e-07
7.43031613216e-07
7.43108329789e-07
7.43203051703e-07
7.43291453169e-07
7.43389314524e-07
7.43497415773e-07
7.43561723014e-07
7.43621393225e-07
7.43694340474e-07
7.43778753014e-07
7.43850932867e-07
7.43930606406e-07
7.44023714028e-07
7.44104486203e-07
7.44173291682e-07
7.4423929091e-07
7.44306482377e-07
7.44373625781e-07
7.44447173972e-07
7.4453312201e-07
7.44630599857e-07
7.4472251938e-07
7.4479841968e-07
7.44876021667e-07
7.44939185311e-07
7.44989469051e-07
7.45037783288e-07
7.45094731177e-07
7.45158533942e-07
7.45232817073e-07
7.45309100573e-07
7.45384313061e-07
7.45454538449e-07
7.45519046515e-07
7.45586220022e-07
7.45651104831e-07
7.45717947964e-07
7.45791057835e-07
7.4586558578e-07
7.45942725598e-07
7.46019940492e-07
7.46091204943e-07
7.46195211188e-07
7.46281755229e-07
7.46363087672e-07
7.46443028351e-07
7.46525553698e-07
7.4661542702e-07
7.46721324656e-07
7.46822118807e-07
7.46905439271e-07
7.46977667228e-07
7.47045999837e-07
7.47140033908e-07
7.47290762746e-07
7.4742228649e-07
7.47508065177e-07
7.4758830389e-07
7.47672477965e-07
7.4775373385e-07
7.47830739434e-07
7.47915658317e-07
7.47998028951e-07
7.48073529151e-07
7.48173539405e-07
7.48249728221e-07
7.48315830287e-07
7.48392695573e-07
7.48483976275e-07
7.48574775703e-07
7.48668906591e-07
7.48765777571e-07
7.48852488589e-07
7.48945507535e-07
7.49014217102e-07
7.49067643823e-07
7.49108376772e-07
7.49162790119e-07
7.49232000418e-07
7.49320356376e-07
7.4942849984e-07
7.49525815782e-07
7.49601779802e-07
7.49673248052e-07
7.49737063963e-07
7.49829616829e-07
7.49917670175e-07