/*--------------------------------*- C++ -*----------------------------------*\
  =========                 |
  \\      /  F ield         | OpenFOAM: The Open Source CFD Toolbox
   \\    /   O peration     | Website:  https://openfoam.org
    \\  /    A nd           | Version:  6
     \\/     M anipulation  |
\*---------------------------------------------------------------------------*/
FoamFile
{
    version     2.0;
    format      ascii;
    class       volScalarField;
    location    "0.0004225";
    object      HO2;
}
// * * * * * * * * * * * * * * * * * * * * * * * * * * * * * * * * * * * * * //

dimensions      [0 0 0 0 0 0 0];

internalField   nonuniform List<scalar> 
32000
(
3.62368842123e-07
3.62368759986e-07
3.62368680742e-07
3.62368660068e-07
3.6236860858e-07
3.62368517591e-07
3.62368503547e-07
3.62368499167e-07
3.62368422705e-07
3.62368326676e-07
3.62368266559e-07
3.62368308709e-07
3.62368334505e-07
3.62368259387e-07
3.62368071162e-07
3.62367826363e-07
3.62367720204e-07
3.62367763541e-07
3.62367880443e-07
3.62367981128e-07
3.62368014627e-07
3.6236794001e-07
3.62367840689e-07
3.62367687199e-07
3.62367670487e-07
3.62367746444e-07
3.62367824248e-07
3.62367898558e-07
3.62367856771e-07
3.62367687369e-07
3.62367540395e-07
3.62367558989e-07
3.62367697268e-07
3.62367767353e-07
3.62367770808e-07
3.62367559147e-07
3.62367304617e-07
3.62367085175e-07
3.62367017525e-07
3.62367101285e-07
3.62367299256e-07
3.62367253254e-07
3.62367137353e-07
3.62367064736e-07
3.62367162212e-07
3.62367381083e-07
3.62367625988e-07
3.62367793453e-07
3.62367790469e-07
3.62367673904e-07
3.62367441785e-07
3.62366935096e-07
3.62366368779e-07
3.62365947632e-07
3.62365482239e-07
3.62365438643e-07
3.62365597367e-07
3.62365865583e-07
3.6236616867e-07
3.62366295985e-07
3.62366330209e-07
3.62366287548e-07
3.62366336891e-07
3.62366186052e-07
3.62366295402e-07
3.62366168517e-07
3.6236607244e-07
3.62366098486e-07
3.62365831217e-07
3.6236557472e-07
3.62365506825e-07
3.62365206551e-07
3.62365185236e-07
3.62365357879e-07
3.62365722889e-07
3.62366120168e-07
3.62366493701e-07
3.62366603466e-07
3.62366585947e-07
3.62366442651e-07
3.62366159161e-07
3.62365548074e-07
3.62365319449e-07
3.62365489141e-07
3.62365832224e-07
3.62366232704e-07
3.62366535997e-07
3.62366814819e-07
3.62366579331e-07
3.62366563287e-07
3.62366245561e-07
3.62365681383e-07
3.62364453883e-07
3.62363976281e-07
3.62363707627e-07
3.62363550899e-07
3.62363710214e-07
3.62363798421e-07
3.62364217087e-07
3.62364786278e-07
3.62365400037e-07
3.6236596356e-07
3.62366060687e-07
3.62366242103e-07
3.62366408539e-07
3.62366409204e-07
3.623658643e-07
3.62364761446e-07
3.62363761304e-07
3.62362985105e-07
3.62361847566e-07
3.62361606067e-07
3.62361009879e-07
3.6236087697e-07
3.62361089425e-07
3.62361340284e-07
3.62361768759e-07
3.62362314964e-07
3.62362871949e-07
3.62363209974e-07
3.62363697442e-07
3.62364016569e-07
3.6236431918e-07
3.6236447601e-07
3.623646131e-07
3.62364213534e-07
3.62363912593e-07
3.62362705328e-07
3.62361574882e-07
3.62361432541e-07
3.62361727954e-07
3.623622203e-07
3.62362976651e-07
3.62363448463e-07
3.62363697103e-07
3.62363283039e-07
3.62363146146e-07
3.62362938763e-07
3.62362279479e-07
3.62362068036e-07
3.62361692662e-07
3.62361412502e-07
3.62360401642e-07
3.62360417172e-07
3.62360119493e-07
3.62360257127e-07
3.62360589488e-07
3.62360789171e-07
3.62361094381e-07
3.62361516569e-07
3.62361911905e-07
3.62362301387e-07
3.62362742464e-07
3.62363168668e-07
3.62363714466e-07
3.62363795009e-07
3.62364124584e-07
3.62364378474e-07
3.62364693762e-07
3.62364715381e-07
3.6236430798e-07
3.6236426674e-07
3.62363906547e-07
3.62361970187e-07
3.62360653801e-07
3.62358986594e-07
3.62357440331e-07
3.6235633453e-07
3.62355282402e-07
3.62355069379e-07
3.62354896071e-07
3.62354918808e-07
3.62355377573e-07
3.62355790748e-07
3.62356457502e-07
3.62357242684e-07
3.6235819907e-07
3.62359400551e-07
3.62360307614e-07
3.62360996742e-07
3.62361489986e-07
3.62361425402e-07
3.62361549658e-07
3.6236116051e-07
3.62361174236e-07
3.62360861833e-07
3.62360438678e-07
3.62359477917e-07
3.62358911295e-07
3.62358733779e-07
3.62358135771e-07
3.62358233212e-07
3.62358138066e-07
3.62358558486e-07
3.62359077876e-07
3.62359447049e-07
3.6236008699e-07
3.6236060665e-07
3.62361270661e-07
3.62361609131e-07
3.62361657634e-07
3.62362092233e-07
3.62362354083e-07
3.62361730824e-07
3.62360787228e-07
3.62359646828e-07
3.62357910205e-07
3.62356701962e-07
3.62354137878e-07
3.62352890436e-07
3.62351504174e-07
3.62350986081e-07
3.62350473582e-07
3.62350451948e-07
3.62351007823e-07
3.62351828207e-07
3.62352498116e-07
3.62353389243e-07
3.62354425162e-07
3.62355485154e-07
3.62356483191e-07
3.62357779934e-07
3.62358832029e-07
3.62360028982e-07
3.62360814235e-07
3.62361474107e-07
3.6236244479e-07
3.62363131682e-07
3.62362845143e-07
3.62362998834e-07
3.62363552022e-07
3.62362785858e-07
3.62360931692e-07
3.62360690094e-07
3.62359768202e-07
3.62358534371e-07
3.62358167432e-07
3.62358233644e-07
3.62358341394e-07
3.62358265698e-07
3.62358818046e-07
3.62359447469e-07
3.62360336473e-07
3.62361276763e-07
3.62361651963e-07
3.62362254994e-07
3.62363082889e-07
3.62363414713e-07
3.62363906783e-07
3.62364401666e-07
3.62364098443e-07
3.62364369302e-07
3.62364601666e-07
3.62363367693e-07
3.62363149438e-07
3.62362906068e-07
3.6236129815e-07
3.62359866535e-07
3.62359160472e-07
3.62357564952e-07
3.62356488475e-07
3.62356738904e-07
3.62356563671e-07
3.62356354966e-07
3.62356993137e-07
3.62357595235e-07
3.6235853071e-07
3.62359789996e-07
3.62360754428e-07
3.62361923992e-07
3.62363209223e-07
3.6236441778e-07
3.62364955133e-07
3.62365090177e-07
3.62366105438e-07
3.62367186356e-07
3.62367590448e-07
3.62367068904e-07
3.62367558091e-07
3.62368360518e-07
3.6236786545e-07
3.62366569715e-07
3.62366881083e-07
3.62367194553e-07
3.62366945676e-07
3.62366235797e-07
3.62365993295e-07
3.62366519736e-07
3.62366827998e-07
3.62366865852e-07
3.62367543152e-07
3.6236872807e-07
3.6236941441e-07
3.62369407295e-07
3.62369639625e-07
3.62370292224e-07
3.62371253166e-07
3.62371456626e-07
3.62371435815e-07
3.62371974258e-07
3.62371833274e-07
3.62372396242e-07
3.62372733599e-07
3.62371947974e-07
3.62371727861e-07
3.62372072515e-07
3.62371297502e-07
3.62371060247e-07
3.62371214972e-07
3.62371706392e-07
3.62372675939e-07
3.62373440192e-07
3.62373880582e-07
3.62374980296e-07
3.62375878412e-07
3.62376955492e-07
3.62378230218e-07
3.62379207961e-07
3.62379286552e-07
3.62380147592e-07
3.62381485084e-07
3.62382705506e-07
3.6238261355e-07
3.62382483023e-07
3.62383423082e-07
3.62384402292e-07
3.62384725788e-07
3.62384182165e-07
3.6238449145e-07
3.62385592712e-07
3.62385868548e-07
3.62385386109e-07
3.62384617828e-07
3.62383973741e-07
3.62384207447e-07
3.62384967621e-07
3.62385514034e-07
3.62384446906e-07
3.62383581248e-07
3.62383187022e-07
3.62382666147e-07
3.62383148113e-07
3.62384526322e-07
3.62385384387e-07
3.62385196861e-07
3.62385432945e-07
3.62386579522e-07
3.62387500721e-07
3.62388275498e-07
3.6238991809e-07
3.62391498174e-07
3.62392809305e-07
3.62394086827e-07
3.62396058998e-07
3.6239772367e-07
3.62399452624e-07
3.62400849135e-07
3.62402665187e-07
3.62404560347e-07
3.62405841291e-07
3.62406652427e-07
3.62407971016e-07
3.62408797701e-07
3.62410036714e-07
3.62411144121e-07
3.62411935751e-07
3.62411971802e-07
3.62412742839e-07
3.62414121507e-07
3.62414889943e-07
3.62415735081e-07
3.62416929463e-07
3.62418580463e-07
3.62419698111e-07
3.62420267665e-07
3.62421190033e-07
3.62422423311e-07
3.62424034094e-07
3.62425742182e-07
3.62426814465e-07
3.62426579006e-07
3.62426202855e-07
3.62427074739e-07
3.62428693519e-07
3.62430162417e-07
3.62429979798e-07
3.62428872513e-07
3.62428918896e-07
3.62429966414e-07
3.62430792292e-07
3.62430684233e-07
3.62431167924e-07
3.62432340272e-07
3.62432738148e-07
3.62432111571e-07
3.62432341921e-07
3.62433274666e-07
3.62434305698e-07
3.62435225253e-07
3.62436583062e-07
3.62438962103e-07
3.62440975451e-07
3.62442196149e-07
3.62443159971e-07
3.62445334165e-07
3.62447554356e-07
3.62449375427e-07
3.62450240996e-07
3.62451363911e-07
3.62452693305e-07
3.62454419538e-07
3.62456709415e-07
3.62459114809e-07
3.62461375483e-07
3.62462523516e-07
3.62463443079e-07
3.62465482096e-07
3.62468166619e-07
3.6247035746e-07
3.62472515693e-07
3.62474980818e-07
3.62478112268e-07
3.62481304454e-07
3.62484992846e-07
3.62487881817e-07
3.62490130802e-07
3.62492420042e-07
3.62495873608e-07
3.62498687552e-07
3.62501712129e-07
3.62504125248e-07
3.62505767274e-07
3.62507448958e-07
3.62509156688e-07
3.62510820561e-07
3.62511904964e-07
3.62512447537e-07
3.62513072419e-07
3.62513049053e-07
3.62509973561e-07
3.62508413629e-07
3.62509378232e-07
3.62510283718e-07
3.62511231177e-07
3.62513336897e-07
3.62515581325e-07
3.62517810121e-07
3.62519701263e-07
3.62521706684e-07
3.62524304603e-07
3.62527394486e-07
3.62530584626e-07
3.62533717571e-07
3.62536820574e-07
3.62539907654e-07
3.62542659897e-07
3.62545043592e-07
3.62546720221e-07
3.62548583066e-07
3.62550383914e-07
3.62552559543e-07
3.62554354589e-07
3.62555711943e-07
3.62556375685e-07
3.62556839796e-07
3.62557330528e-07
3.62556278322e-07
3.62555768128e-07
3.62556689768e-07
3.62557899735e-07
3.6255866493e-07
3.62559518496e-07
3.62560933571e-07
3.62563204084e-07
3.62566150962e-07
3.6256849789e-07
3.62569529445e-07
3.62569923049e-07
3.62570849506e-07
3.62572650548e-07
3.62575039427e-07
3.62576541733e-07
3.62577719347e-07
3.62579706839e-07
3.62581150633e-07
3.62582513822e-07
3.62583488515e-07
3.62584022525e-07
3.62584214688e-07
3.62584674531e-07
3.62584767609e-07
3.62582522563e-07
3.6257878801e-07
3.62578674538e-07
3.6257961033e-07
3.62581474843e-07
3.62583327588e-07
3.62584804446e-07
3.62586001877e-07
3.62587723815e-07
3.62590423966e-07
3.62593450226e-07
3.62595655689e-07
3.62599029471e-07
3.62602997341e-07
3.62605471054e-07
3.62608891521e-07
3.62612068041e-07
3.62614578276e-07
3.62617271958e-07
3.62620314732e-07
3.62623099107e-07
3.62624788034e-07
3.62627152318e-07
3.62629558997e-07
3.62630794647e-07
3.62631757753e-07
3.62633575712e-07
3.62635524907e-07
3.62636928126e-07
3.62637612902e-07
3.62637857663e-07
3.62638245464e-07
3.62637741097e-07
3.62635230444e-07
3.62634725367e-07
3.626352324e-07
3.62635489402e-07
3.62635642421e-07
3.62635906725e-07
3.62635045744e-07
3.62631097829e-07
3.62628806762e-07
3.62629210593e-07
3.62630847464e-07
3.62632729422e-07
3.62633834128e-07
3.62634917636e-07
3.62636818192e-07
3.62639502201e-07
3.62641399929e-07
3.62642647472e-07
3.62642760078e-07
3.62643235383e-07
3.62644313841e-07
3.62645682403e-07
3.62646396891e-07
3.6264675338e-07
3.62647384445e-07
3.6264855367e-07
3.62650868676e-07
3.62652882002e-07
3.62654189347e-07
3.62654657499e-07
3.62655361687e-07
3.62657135859e-07
3.6265883003e-07
3.62660589026e-07
3.6266095564e-07
3.62660962787e-07
3.62661211096e-07
3.62661576202e-07
3.6266216759e-07
3.62663033238e-07
3.62663808824e-07
3.62664174013e-07
3.62664178966e-07
3.62664374864e-07
3.62664564021e-07
3.62663828665e-07
3.6266175785e-07
3.62661655032e-07
3.62662216037e-07
3.62662915963e-07
3.62663981137e-07
3.62665524744e-07
3.6266714218e-07
3.62668300314e-07
3.6266871527e-07
3.6266941562e-07
3.62670864888e-07
3.6267314394e-07
3.62675556531e-07
3.6267726101e-07
3.62677327448e-07
3.62677741185e-07
3.62678061367e-07
3.62678947704e-07
3.62679991295e-07
3.62680834578e-07
3.62681412856e-07
3.62681409199e-07
3.6268169257e-07
3.62681927956e-07
3.62682333974e-07
3.62683171856e-07
3.62684575747e-07
3.62685395481e-07
3.62685635704e-07
3.62685636281e-07
3.6268584494e-07
3.62686231301e-07
3.62686772942e-07
3.62687239576e-07
3.62687479218e-07
3.62687060791e-07
3.62684607966e-07
3.62680817935e-07
3.6267835515e-07
3.62676630095e-07
3.62674770581e-07
3.62674737842e-07
3.62675312808e-07
3.62676111135e-07
3.62677065183e-07
3.62678149616e-07
3.62679757753e-07
3.62681554313e-07
3.62683340898e-07
3.62684713786e-07
3.62686744107e-07
3.62688264686e-07
3.6268940222e-07
3.62689809875e-07
3.62690287403e-07
3.62691226911e-07
3.62692616512e-07
3.6269395801e-07
3.62694754222e-07
3.62695000927e-07
3.62695287023e-07
3.62695712477e-07
3.62696111135e-07
3.62696053436e-07
3.62695233983e-07
3.62693559721e-07
3.62691894866e-07
3.6269026529e-07
3.62688489299e-07
3.62685702434e-07
3.62681701667e-07
3.62678734536e-07
3.62678545498e-07
3.62679054423e-07
3.62680122744e-07
3.62681834828e-07
3.62683948566e-07
3.6268594825e-07
3.62686605743e-07
3.6268688955e-07
3.62687316451e-07
3.62687842446e-07
3.62688142223e-07
3.62688690161e-07
3.62689703201e-07
3.62690798353e-07
3.62692303864e-07
3.62693810684e-07
3.62694863041e-07
3.62695066118e-07
3.62695151656e-07
3.6269532337e-07
3.62695360993e-07
3.62694000696e-07
3.62688836443e-07
3.62682070765e-07
3.62678208721e-07
3.6267752001e-07
3.62677623073e-07
3.62678317071e-07
3.62679359432e-07
3.62680508702e-07
3.62681020477e-07
3.6268122765e-07
3.62681732671e-07
3.62682481076e-07
3.62683387141e-07
3.62683709987e-07
3.62683912493e-07
3.62683990019e-07
3.62684161033e-07
3.62684333456e-07
3.62684536385e-07
3.62684790924e-07
3.62685150301e-07
3.62685553946e-07
3.62685510939e-07
3.62684160609e-07
3.62680570315e-07
3.62677784886e-07
3.6267650295e-07
3.62676033004e-07
3.62675754195e-07
3.62674530143e-07
3.62672253287e-07
3.62671683516e-07
3.62672093726e-07
3.62673117928e-07
3.62673758549e-07
3.62674639323e-07
3.62676072221e-07
3.62677059311e-07
3.62678219192e-07
3.6267927105e-07
3.62680819976e-07
3.62682484164e-07
3.62683640918e-07
3.62684151202e-07
3.62684287347e-07
3.62684643285e-07
3.62685152634e-07
3.62685893906e-07
3.62686713497e-07
3.62687217813e-07
3.62687410701e-07
3.62687642579e-07
3.62687989895e-07
3.6268825976e-07
3.62687952886e-07
3.62685922776e-07
3.62681724881e-07
3.6267647968e-07
3.62670974784e-07
3.62665602309e-07
3.62661070532e-07
3.62657947165e-07
3.62657276694e-07
3.62657556062e-07
3.62657792568e-07
3.62657276911e-07
3.62655446359e-07
3.62655072773e-07
3.62655494215e-07
3.62655966807e-07
3.62656111851e-07
3.62656197056e-07
3.62656374382e-07
3.62656565937e-07
3.62656113798e-07
3.62653568395e-07
3.62651132684e-07
3.6265096202e-07
3.62651136671e-07
3.62651390603e-07
3.6265153672e-07
3.62650941797e-07
3.62648514508e-07
3.62645636985e-07
3.62643907222e-07
3.62643496253e-07
3.62643666829e-07
3.62643879437e-07
3.62643945542e-07
3.6264340575e-07
3.62641838157e-07
3.62640078884e-07
3.62638540901e-07
3.62637140142e-07
3.62635720175e-07
3.62634232723e-07
3.62632459194e-07
3.62629940238e-07
3.62626180186e-07
3.62621532162e-07
3.62617100382e-07
3.62613747396e-07
3.62613130033e-07
3.62613655021e-07
3.62614909715e-07
3.62615567629e-07
3.62615793788e-07
3.62616221762e-07
3.62617201723e-07
3.62618935403e-07
3.62620019731e-07
3.62620993409e-07
3.62621240647e-07
3.62621384613e-07
3.62621623214e-07
3.62621490662e-07
3.6261983405e-07
3.62616758955e-07
3.62615235446e-07
3.62615439156e-07
3.62616680397e-07
3.6261807684e-07
3.62619114407e-07
3.62620100852e-07
3.62620383152e-07
3.62620661781e-07
3.62621176893e-07
3.62621194577e-07
3.62621407686e-07
3.62621581224e-07
3.62621792896e-07
3.62621795748e-07
3.62620671103e-07
3.62616723151e-07
3.62611129755e-07
3.62606533496e-07
3.6260382998e-07
3.62601737073e-07
3.62599806299e-07
3.62597810569e-07
3.62595797027e-07
3.62594595741e-07
3.62593698433e-07
3.6259295552e-07
3.62592004869e-07
3.62590600196e-07
3.62588564628e-07
3.62585991605e-07
3.62583256652e-07
3.62580588686e-07
3.62577978734e-07
3.6257538257e-07
3.62572759453e-07
3.62570093199e-07
3.62567088537e-07
3.62563094039e-07
3.62559644572e-07
3.62557441087e-07
3.6255630714e-07
3.62555475063e-07
3.6255439301e-07
3.62552511539e-07
3.62550418857e-07
3.62549960427e-07
3.62550169805e-07
3.62550660327e-07
3.62550789435e-07
3.62550789704e-07
3.62550910509e-07
3.62551400177e-07
3.6255170121e-07
3.62552050034e-07
3.62552440755e-07
3.62552521129e-07
3.62552661168e-07
3.62552859548e-07
3.62553103787e-07
3.62553049888e-07
3.62552033539e-07
3.62549695589e-07
3.62546924662e-07
3.62544187489e-07
3.62540607994e-07
3.62537335219e-07
3.62533176634e-07
3.62528853318e-07
3.62525264095e-07
3.62522986596e-07
3.62521490545e-07
3.62520458671e-07
3.62519196697e-07
3.62517559068e-07
3.62515378621e-07
3.62512377167e-07
3.62509160529e-07
3.62506851063e-07
3.62505907237e-07
3.62505590056e-07
3.62505422571e-07
3.62505384244e-07
3.62505415646e-07
3.62504972467e-07
3.62503170644e-07
3.62499491204e-07
3.62494499554e-07
3.62490361766e-07
3.62488152672e-07
3.62487398529e-07
3.62487252299e-07
3.62487167182e-07
3.62486857904e-07
3.62485915227e-07
3.62484105457e-07
3.62481384646e-07
3.62477845758e-07
3.62474484632e-07
3.62473052244e-07
3.62473176658e-07
3.62473864078e-07
3.62474533473e-07
3.62474881991e-07
3.62475186315e-07
3.62475593647e-07
3.62475899287e-07
3.62475708449e-07
3.62474089491e-07
3.62470647159e-07
3.62467242319e-07
3.62464656655e-07
3.62462416274e-07
3.62460291674e-07
3.6245800214e-07
3.62455029479e-07
3.62450746306e-07
3.62445420798e-07
3.62440270546e-07
3.6243588926e-07
3.62432058396e-07
3.62428432629e-07
3.62425310102e-07
3.62423580956e-07
3.6242301326e-07
3.62423160807e-07
3.62423485666e-07
3.62423739934e-07
3.62424013922e-07
3.62424240025e-07
3.62424148025e-07
3.6242326884e-07
3.62421579656e-07
3.62419864486e-07
3.62418525753e-07
3.62418306554e-07
3.62418582407e-07
3.6241897558e-07
3.6241929855e-07
3.62419660003e-07
3.62419805078e-07
3.62419298526e-07
3.62417101886e-07
3.62413240148e-07
3.62408384091e-07
3.62403019622e-07
3.62399039131e-07
3.62395949483e-07
3.62382021903e-07
3.6236862606e-07
3.62363711426e-07
3.62358712804e-07
3.62354121133e-07
3.62349693302e-07
3.62345608537e-07
3.62341919278e-07
3.62338703714e-07
3.62336553627e-07
3.62334903494e-07
3.62333488262e-07
3.62331597192e-07
3.62329997564e-07
3.62329932384e-07
3.62330476316e-07
3.62331681304e-07
3.62333304393e-07
3.62335121693e-07
3.62337082527e-07
3.62339046201e-07
3.62340688978e-07
3.62341517688e-07
3.6234196189e-07
3.62342491581e-07
3.62343267426e-07
3.62344354061e-07
3.6234576426e-07
3.62347638156e-07
3.62349458196e-07
3.62351026814e-07
3.62352178521e-07
3.62352937983e-07
3.62353432699e-07
3.62353891651e-07
3.62354440017e-07
3.62355031419e-07
3.62355196589e-07
3.62354383876e-07
3.62350985054e-07
3.62346208313e-07
3.62342672606e-07
3.62333590935e-07
3.62317885438e-07
3.62299444712e-07
3.62284290801e-07
3.6228051753e-07
3.62277406481e-07
3.62274630824e-07
3.62272505591e-07
3.62272024748e-07
3.62272465975e-07
3.6227374224e-07
3.62274585363e-07
3.62275482527e-07
3.62276273102e-07
3.62277396969e-07
3.62278577995e-07
3.62280074944e-07
3.62281078109e-07
3.62281865598e-07
3.62282518004e-07
3.62282697144e-07
3.62282355828e-07
3.62280865121e-07
3.62278236664e-07
3.62276113686e-07
3.62271348881e-07
3.62257570133e-07
3.62238793485e-07
3.62233422832e-07
3.62230416267e-07
3.62229268158e-07
3.62229724174e-07
3.62231386501e-07
3.62232914177e-07
3.62234987322e-07
3.62237022767e-07
3.62239313493e-07
3.62240430407e-07
3.62241782333e-07
3.62244083061e-07
3.6224770923e-07
3.62249609725e-07
3.62251508837e-07
3.62253213575e-07
3.622542645e-07
3.62254939266e-07
3.62255637141e-07
3.6225642203e-07
3.62256853047e-07
3.62256581246e-07
3.62254583987e-07
3.62251830028e-07
3.62246403895e-07
3.62235713748e-07
3.6222105281e-07
3.62206932188e-07
3.6219500923e-07
3.62184274406e-07
3.62175541354e-07
3.62165094154e-07
3.62161021045e-07
3.62158642755e-07
3.621568859e-07
3.6215564948e-07
3.62155449728e-07
3.62155875249e-07
3.62157005466e-07
3.62158581559e-07
3.62159813901e-07
3.62160959668e-07
3.62162581939e-07
3.62164059216e-07
3.62165394137e-07
3.62166713373e-07
3.62168242191e-07
3.62169991423e-07
3.62171849058e-07
3.62173687793e-07
3.62175077305e-07
3.62176340401e-07
3.62177574061e-07
3.62178852444e-07
3.62180234605e-07
3.62181722555e-07
3.62182910611e-07
3.62183389973e-07
3.62182892073e-07
3.62180889136e-07
3.62177343923e-07
3.62170173295e-07
3.62161061277e-07
3.62153285212e-07
3.62147375407e-07
3.6214195479e-07
3.62137228797e-07
3.62133115739e-07
3.62128999126e-07
3.62122844733e-07
3.62119695624e-07
3.62117513971e-07
3.62116748991e-07
3.6211722216e-07
3.62118700398e-07
3.62121239223e-07
3.62124304876e-07
3.62127038594e-07
3.62129149984e-07
3.62131186723e-07
3.62133394403e-07
3.62135791388e-07
3.62138334789e-07
3.62140885408e-07
3.62143488358e-07
3.6214605057e-07
3.62148470051e-07
3.62150434234e-07
3.62151441219e-07
3.62151230137e-07
3.6214893693e-07
3.6214262004e-07
3.6213288726e-07
3.62122155558e-07
3.62112777956e-07
3.62105046455e-07
3.62099370766e-07
3.6209622944e-07
3.62095181252e-07
3.62095208649e-07
3.62095569059e-07
3.62095727789e-07
3.62094790563e-07
3.6209124508e-07
3.6208844757e-07
3.62088750093e-07
3.62090474948e-07
3.62093687708e-07
3.62097389016e-07
3.62100994051e-07
3.62104779796e-07
3.62108748918e-07
3.62112875783e-07
3.62116920293e-07
3.62120009789e-07
3.62121207564e-07
3.6212162458e-07
3.62122555018e-07
3.62124542042e-07
3.62127961965e-07
3.62132483174e-07
3.62136929555e-07
3.62141513203e-07
3.62145545263e-07
3.62149687005e-07
3.62153898124e-07
3.62157944828e-07
3.62161477401e-07
3.62163999787e-07
3.62164829663e-07
3.62164058287e-07
3.62159533109e-07
3.62153259888e-07
3.6215064366e-07
3.62150009416e-07
3.62150784171e-07
3.6215255118e-07
3.62155597947e-07
3.62159695173e-07
3.62163946167e-07
3.62168146545e-07
3.62172646829e-07
3.62177299965e-07
3.62182149878e-07
3.62186355753e-07
3.62189301689e-07
3.62190550617e-07
3.62190647208e-07
3.62188689584e-07
3.62185112017e-07
3.62183414426e-07
3.62183133921e-07
3.62183066801e-07
3.62182882863e-07
3.62182415087e-07
3.62181667092e-07
3.62180649793e-07
3.62179134196e-07
3.62176727816e-07
3.62173065455e-07
3.62168042678e-07
3.6216231979e-07
3.62157272728e-07
3.62153050005e-07
3.62149727902e-07
3.62147422104e-07
3.62147845366e-07
3.62150258341e-07
3.62153071107e-07
3.62157976735e-07
3.62164362693e-07
3.62171175243e-07
3.62177030088e-07
3.621821626e-07
3.62187148689e-07
3.62192436445e-07
3.62197815823e-07
3.62200647117e-07
3.62202326913e-07
3.6220390434e-07
3.62206493779e-07
3.6221149149e-07
3.62215028071e-07
3.62218186661e-07
3.62221508208e-07
3.62227033371e-07
3.62230944982e-07
3.62234859821e-07
3.62238533424e-07
3.62241645225e-07
3.62247494105e-07
3.62251699795e-07
3.62256260451e-07
3.62262546057e-07
3.62270121236e-07
3.62278608686e-07
3.62286814233e-07
3.62294044385e-07
3.62300419979e-07
3.62307308407e-07
3.62314446844e-07
3.62321638554e-07
3.62329395755e-07
3.62337364992e-07
3.62345091891e-07
3.62351329533e-07
3.62355902296e-07
3.62360159135e-07
3.62362360771e-07
3.6236188462e-07
3.6235784651e-07
3.62353170261e-07
3.62350381336e-07
3.62349559528e-07
3.62350162849e-07
3.62351547209e-07
3.62353216438e-07
3.623546636e-07
3.62355869851e-07
3.62357901923e-07
3.62361460119e-07
3.62366303176e-07
3.62371599475e-07
3.62377427859e-07
3.62383022764e-07
3.62388996959e-07
3.62393886117e-07
3.62399632113e-07
3.62406477593e-07
3.62414588838e-07
3.62423969994e-07
3.62434655894e-07
3.62445973005e-07
3.62457471948e-07
3.62469279999e-07
3.62481340722e-07
3.62491861081e-07
3.62501157054e-07
3.62511112476e-07
3.62521494971e-07
3.62531904824e-07
3.62542101649e-07
3.62552794672e-07
3.62563823471e-07
3.62574980806e-07
3.62585929608e-07
3.62596437197e-07
3.62606303376e-07
3.62615264706e-07
3.62623872652e-07
3.62632419461e-07
3.62640326212e-07
3.62647230897e-07
3.62652578346e-07
3.62655998627e-07
3.62658042763e-07
3.62658988175e-07
3.62658751656e-07
3.62663194182e-07
3.62671009835e-07
3.62680318379e-07
3.62689103722e-07
3.62698495465e-07
3.62706429596e-07
3.62713714327e-07
3.62721755563e-07
3.62730850587e-07
3.6274141719e-07
3.62753598109e-07
3.62768390727e-07
3.62783356041e-07
3.62797884106e-07
3.6281374142e-07
3.62826850372e-07
3.62840527623e-07
3.62854513438e-07
3.62868694199e-07
3.62882940382e-07
3.62897581396e-07
3.62912983007e-07
3.62929209333e-07
3.62944660642e-07
3.62959577383e-07
3.62975052978e-07
3.62989727388e-07
3.63003873247e-07
3.63017970871e-07
3.63030845124e-07
3.6304139928e-07
3.63051180581e-07
3.63061267962e-07
3.63071722404e-07
3.63082388676e-07
3.63093232988e-07
3.63104464141e-07
3.6311555606e-07
3.63125773926e-07
3.63135597759e-07
3.63144917324e-07
3.6315354219e-07
3.63160255547e-07
3.63164120787e-07
3.6316560981e-07
3.63166902783e-07
3.63169273482e-07
3.63171268782e-07
3.63172961374e-07
3.63173888898e-07
3.63172925487e-07
3.63174991211e-07
3.63179526345e-07
3.63185331575e-07
3.6319136714e-07
3.63198487093e-07
3.63201740948e-07
3.63206521944e-07
3.63214443071e-07
3.63223424441e-07
3.6323149265e-07
3.63240409602e-07
3.63247736595e-07
3.63254205244e-07
3.63261597909e-07
3.63270265404e-07
3.63280607743e-07
3.63292957425e-07
3.63306783751e-07
3.63321305523e-07
3.63334415565e-07
3.63346715483e-07
3.63360088605e-07
3.6337405351e-07
3.63388769379e-07
3.63403547927e-07
3.63417737478e-07
3.63430560675e-07
3.63443426593e-07
3.63457810139e-07
3.63473300367e-07
3.63488844978e-07
3.63506515984e-07
3.63518085528e-07
3.63531901869e-07
3.6354528915e-07
3.63556666403e-07
3.63567773282e-07
3.6358296922e-07
3.63593284105e-07
3.63607665736e-07
3.63620493451e-07
3.63633285337e-07
3.63645897274e-07
3.63657236819e-07
3.63667532349e-07
3.63676050269e-07
3.6368351283e-07
3.63692102403e-07
3.63699883069e-07
3.63703265472e-07
3.63703974571e-07
3.63700175786e-07
3.63689935103e-07
3.63682683853e-07
3.63683367266e-07
3.63682326266e-07
3.63680950235e-07
3.63680592807e-07
3.63676711045e-07
3.63675438235e-07
3.63677383613e-07
3.63681968976e-07
3.63689783218e-07
3.63699605773e-07
3.63708627583e-07
3.63716139082e-07
3.63723292042e-07
3.63731693646e-07
3.63741242834e-07
3.63751472698e-07
3.63762270281e-07
3.63773623131e-07
3.63784725072e-07
3.63795358909e-07
3.63805469652e-07
3.63815053416e-07
3.63824349202e-07
3.63833931023e-07
3.63843709932e-07
3.63853108211e-07
3.63862181372e-07
3.63871222866e-07
3.63880480081e-07
3.63889598955e-07
3.63898110738e-07
3.63905398501e-07
3.63911988642e-07
3.63918591685e-07
3.63925315569e-07
3.63932074143e-07
3.63938586848e-07
3.6394417629e-07
3.63948285398e-07
3.63951094942e-07
3.63952779972e-07
3.63953253098e-07
3.63951801989e-07
3.63949721623e-07
3.63948325732e-07
3.63945377232e-07
3.63944319824e-07
3.6394381788e-07
3.63945184634e-07
3.63949997583e-07
3.63957816664e-07
3.63967372731e-07
3.63977294033e-07
3.63987265884e-07
3.63998212146e-07
3.64009641054e-07
3.64023265379e-07
3.64038520632e-07
3.64053436648e-07
3.64064701337e-07
3.64076634502e-07
3.64088987686e-07
3.64104309266e-07
3.6411654395e-07
3.64128535436e-07
3.64140524845e-07
3.64152946003e-07
3.64165012636e-07
3.64176195165e-07
3.64186550606e-07
3.64195752695e-07
3.64201777787e-07
3.64203340246e-07
3.64202781024e-07
3.64202396229e-07
3.64191704791e-07
3.64168828975e-07
3.64157250337e-07
3.64157691691e-07
3.64162107095e-07
3.64168502639e-07
3.64176821172e-07
3.64186757262e-07
3.64194825464e-07
3.64206397312e-07
3.64218037813e-07
3.64231234913e-07
3.64244673837e-07
3.64257833542e-07
3.64269437502e-07
3.6428270207e-07
3.64294542326e-07
3.64309035385e-07
3.64319389773e-07
3.64329661417e-07
3.6434203868e-07
3.64355541624e-07
3.64367282882e-07
3.6437826203e-07
3.64388178846e-07
3.64397241115e-07
3.64405426534e-07
3.64413313735e-07
3.64421968598e-07
3.64428709301e-07
3.64431353352e-07
3.64430935883e-07
3.64430616723e-07
3.64428472991e-07
3.64413309074e-07
3.64397578096e-07
3.64394018268e-07
3.64394291305e-07
3.6439345345e-07
3.64394346502e-07
3.64397257436e-07
3.64401597704e-07
3.6440601433e-07
3.64412532045e-07
3.64420089698e-07
3.64428555296e-07
3.64438017346e-07
3.64446408835e-07
3.64453656862e-07
3.64460285917e-07
3.64467015662e-07
3.64474251277e-07
3.64481524795e-07
3.64488260447e-07
3.6449406411e-07
3.6449993822e-07
3.64505789736e-07
3.64512456332e-07
3.64518458537e-07
3.64523106974e-07
3.64528830565e-07
3.64534425745e-07
3.64540068142e-07
3.64542471627e-07
3.64540848691e-07
3.64538485573e-07
3.645360519e-07
3.64534306641e-07
3.64533714446e-07
3.64533565019e-07
3.64535515868e-07
3.64539589606e-07
3.64544298711e-07
3.64547248628e-07
3.64548213027e-07
3.64549506829e-07
3.64553028913e-07
3.6455719148e-07
3.64560429918e-07
3.64562378967e-07
3.64564199389e-07
3.64567216585e-07
3.64571485228e-07
3.64575708014e-07
3.64580049626e-07
3.64584432719e-07
3.64588704204e-07
3.64592759773e-07
3.64596495274e-07
3.64600692426e-07
3.64606550992e-07
3.64613571818e-07
3.64621573861e-07
3.64629116542e-07
3.64634828396e-07
3.646394711e-07
3.64644219775e-07
3.64649185077e-07
3.64654273629e-07
3.64659704353e-07
3.64665337845e-07
3.64670386024e-07
3.64673869071e-07
3.64675540231e-07
3.64675611139e-07
3.64675720029e-07
3.64676846767e-07
3.64680027999e-07
3.64684569474e-07
3.64689172574e-07
3.64689635438e-07
3.64687357847e-07
3.64685302342e-07
3.64684860363e-07
3.64682918416e-07
3.64679090634e-07
3.64675537808e-07
3.646705345e-07
3.64664248971e-07
3.64663561418e-07
3.6466373108e-07
3.64663254563e-07
3.64663870441e-07
3.64665249341e-07
3.64665877382e-07
3.64666126824e-07
3.64667724943e-07
3.64671299831e-07
3.64676144005e-07
3.6468139178e-07
3.64686530222e-07
3.64691511165e-07
3.64696108082e-07
3.64700706819e-07
3.64705973445e-07
3.64712585194e-07
3.64721592538e-07
3.64730814036e-07
3.64740695e-07
3.64749751226e-07
3.64758202222e-07
3.64766237914e-07
3.64774554018e-07
3.64782982934e-07
3.6479146683e-07
3.6479986765e-07
3.64808215288e-07
3.64816672169e-07
3.6482455966e-07
3.64831033639e-07
3.64836331778e-07
3.64841695251e-07
3.64845498738e-07
3.64850501994e-07
3.6485373474e-07
3.64851887848e-07
3.64850138304e-07
3.64848380034e-07
3.64846235231e-07
3.64843040152e-07
3.6483790308e-07
3.64829841072e-07
3.64822441419e-07
3.6481771054e-07
3.64814064767e-07
3.64809404254e-07
3.64798465966e-07
3.64777097485e-07
3.64760398628e-07
3.64753920779e-07
3.64749689971e-07
3.64746117865e-07
3.64742793514e-07
3.64741425604e-07
3.64739448112e-07
3.64738346365e-07
3.64738130289e-07
3.64738942404e-07
3.64742235615e-07
3.64746231763e-07
3.64749505315e-07
3.64752501345e-07
3.64756039032e-07
3.64760276644e-07
3.64765452104e-07
3.64770999485e-07
3.64778750542e-07
3.64787240893e-07
3.64796302291e-07
3.64805011254e-07
3.64813597804e-07
3.64820693572e-07
3.64825816467e-07
3.64829964598e-07
3.64835202284e-07
3.648406873e-07
3.64848123529e-07
3.648544056e-07
3.64854327402e-07
3.64853228502e-07