/*--------------------------------*- C++ -*----------------------------------*\
  =========                 |
  \\      /  F ield         | OpenFOAM: The Open Source CFD Toolbox
   \\    /   O peration     | Website:  https://openfoam.org
    \\  /    A nd           | Version:  6
     \\/     M anipulation  |
\*---------------------------------------------------------------------------*/
FoamFile
{
    version     2.0;
    format      ascii;
    class       volScalarField;
    location    "0.0004225";
    object      magGradrho;
}
// * * * * * * * * * * * * * * * * * * * * * * * * * * * * * * * * * * * * * //

dimensions      [1 -4 0 0 0 0 0];

internalField   nonuniform List<scalar> 
32000
(
0.000137155487976
0.000366676977681
0.000598744954441
0.000850963352247
0.00111739352959
0.00137983922221
0.00163909441114
0.00189115070771
0.0020832545785
0.00223096439678
0.00232736444347
0.00238362548287
0.0023940015126
0.00236547739296
0.00233557481433
0.00235134055157
0.00228819188369
0.00218122417372
0.00215131477818
0.00214041908221
0.00215229059943
0.00220408701598
0.00230786784892
0.00247357950881
0.00270991602666
0.00303996427125
0.00344065574263
0.003876283353
0.00436074054199
0.00489600108231
0.00545113224958
0.00585286687198
0.00598653237171
0.00595843094591
0.00619947984848
0.00644224197832
0.00659440334072
0.00682362223989
0.00702777888374
0.0073125416635
0.00760513076559
0.00795216498336
0.00825125376336
0.00828604437587
0.00797905139069
0.00740323430489
0.00660615982978
0.00569248573517
0.00474107517866
0.00376900398722
0.00276991425754
0.00170751754993
0.000667708740403
0.000167280949292
0.000744141985716
0.00110309732323
0.00128717012418
0.00129281269744
0.00120846713387
0.00115887920787
0.00114673463867
0.00114441782982
0.00113068860291
0.00110134436727
0.00104057018048
0.000946842199914
0.000860445783905
0.00071062206602
0.000632687815983
0.000667407428422
0.000654929249938
0.000642054811552
0.000605151111513
0.000547107903415
0.000525306158435
0.000557757543222
0.000628643513927
0.000721463057211
0.000844927935126
0.000994056550399
0.00116114757268
0.00134081681088
0.00150968610551
0.00157449864886
0.00146408552708
0.00121590501448
0.00087440906512
0.000494383724226
2.34076609007e-05
0.000629800911672
0.00119929911244
0.00181254522161
0.00248276847432
0.00320262792956
0.00389204140189
0.00449649116985
0.00512898394546
0.00597889224756
0.00713676127798
0.0082956605135
0.00882997855986
0.0086658013854
0.0081626686809
0.00746326822039
0.00661748188066
0.00569753931914
0.00470107888354
0.00361852404025
0.0026006279034
0.00160994410186
0.000675022053499
0.000141088639524
0.00132559750909
0.00261832631748
0.00382971303866
0.00532281850784
0.0067594840066
0.00780112142175
0.00867419226535
0.00998784919489
0.0114955969442
0.0124259313741
0.0131003976986
0.0134873825357
0.0131787753047
0.0126535038168
0.0121287605141
0.0115423160835
0.0109238170021
0.0102613290323
0.00958318447465
0.00891490876102
0.00823502515121
0.00756198847274
0.00689071598799
0.00621265167973
0.00555606625215
0.00491823797942
0.00429219698791
0.00369832705882
0.00316312540613
0.002648318381
0.00215360004027
0.00169335110089
0.00130205859874
0.000919359449951
0.00052917267817
0.000140035853464
0.000252533203225
0.000602559927681
0.000967773067088
0.00134863251941
0.00174186843172
0.00214144331824
0.00254430908118
0.00293573354049
0.0032882960512
0.00357983273152
0.00379560537812
0.00383409429178
0.00365696577187
0.0033672556296
0.00301484078587
0.00260770231363
0.00216913748411
0.00173100602537
0.00131434924007
0.000936941848433
0.000605082581804
0.000308941624724
5.71264742325e-05
0.000182727990454
0.000496022028247
0.000704037371479
0.000756657646966
0.000736699806248
0.00054497481289
0.000264028288165
4.73647867889e-06
0.000290882452944
0.000645255015597
0.00107198124943
0.00153864345012
0.00205106788866
0.00261017910682
0.00318360742174
0.00379664472929
0.00441707715949
0.00504732070483
0.00569286177064
0.00633167855386
0.00698067377178
0.00762188873891
0.00786681750043
0.00736851080559
0.0065839758187
0.00577466117161
0.00473128974204
0.0035134199559
0.00242246305995
0.00170971944339
0.00133457694548
0.000965241603822
0.000470567556004
4.06002426232e-05
0.000513501936556
0.00103674899991
0.00167640812446
0.00238273671139
0.00309684520568
0.00377203305483
0.0044035073778
0.00499238371129
0.00556145668011
0.00611559020303
0.00665850550613
0.00689793347631
0.00647927142711
0.00580034986269
0.00520799627409
0.00455341144754
0.00391403871607
0.0034421690525
0.00310464289477
0.00274805793681
0.00231889387385
0.00190643511611
0.00160487525558
0.00141329198886
0.00124754138389
0.00102524776808
0.000746896128929
0.000481740735898
0.000277099989818
0.000146966814803
6.4794642091e-05
4.0129901084e-05
0.000190982607875
0.000366027658215
0.000544627628586
0.000722993391501
0.000906265990529
0.00109855093663
0.00132274321054
0.00159415755065
0.00184880132145
0.00201510408891
0.00218492769423
0.00238895769269
0.00263027605474
0.00294754624002
0.00327861383469
0.00367461858522
0.00409375799969
0.00450866212854
0.00497221530659
0.00542085162809
0.00590517824879
0.00641571922108
0.00695035129331
0.00753683514931
0.0081379276912
0.00879784090821
0.00947617653373
0.0101827934759
0.0109354803601
0.0117030730354
0.0125138125871
0.0133445994007
0.014205340721
0.0150888402231
0.0160012224683
0.0169479436187
0.0179136708546
0.0189091401649
0.0199235655564
0.0207023354224
0.0202311732102
0.018676148392
0.0170793683642
0.0154616705862
0.0137029026719
0.0118451306329
0.0100011819432
0.00823424162216
0.00657176141115
0.00506492083653
0.00378976995022
0.00277536920908
0.00197898191839
0.00136109554264
0.000926983196421
0.000511777985713
3.89723339321e-05
0.000589199477511
0.00113178903044
0.00175704362274
0.00243546086103
0.00316175096223
0.003908710102
0.0045743697846
0.00450454661229
0.00356595670174
0.0025133592519
0.00167297563145
0.00103641001814
0.000553403967617
0.000201462950326
0.000208751656369
0.000647225239711
0.0010227777078
0.00148085202602
0.00197682075055
0.0025036702022
0.00305457397088
0.00361017635898
0.00416276490004
0.0047042196565
0.00522347631539
0.00569973624477
0.00614654539749
0.00656005664232
0.00694507120975
0.00730052922737
0.00766774981074
0.00789963304487
0.00748971670951
0.00654045747357
0.00556516784587
0.00464355167003
0.00374650102364
0.00284957255383
0.00199189685552
0.00123732465788
0.000657563739516
0.000311198556074
3.62767102599e-05
0.000323083716898
0.000776061688599
0.00136045670687
0.00209752661231
0.00295296139863
0.0039072639674
0.00493570967788
0.00602974772028
0.00719856177244
0.00841767341351
0.00968391600497
0.0109879361688
0.0123190934756
0.0136600748429
0.0149774173996
0.0162870377154
0.0175695138047
0.018819057262
0.0200363513419
0.0212188484388
0.0217246544642
0.0206015045282
0.0186302845831
0.016899070437
0.015460807401
0.0143079040732
0.0134282448168
0.0127937130936
0.0123783008117
0.0121579946111
0.0120717183656
0.0120375436168
0.0120068853639
0.0120729205387
0.0122669809925
0.0123810640855
0.0128341745537
0.0133710958785
0.0140155238229
0.015209547641
0.0162461761942
0.0181252027653
0.01979173039
0.0224442258978
0.0249327521069
0.0284595162627
0.0320069817544
0.0364120077614
0.0412172530519
0.0466272523277
0.0528135576502
0.0593929589887
0.0670089958578
0.0749221916961
0.0840466779107
0.0934712288234
0.104149236798
0.115235343118
0.127554166023
0.140447682424
0.154495814204
0.16933763413
0.181706485826
0.174069311422
0.14678053849
0.117985182592
0.091851295955
0.0687441727019
0.0489265992941
0.0325425503393
0.0196241708596
0.0101134321545
0.00392842065898
0.00052471276781
0.00142693473384
0.00388320379948
0.00782382548071
0.0132482810749
0.0200993281144
0.0283065172856
0.0377702757658
0.048320958514
0.0597775467551
0.0718693805428
0.084352417353
0.0969112705438
0.109249941793
0.121033884156
0.131961385163
0.141721646142
0.150054705599
0.15598645183
0.154811131638
0.147984491955
0.142292871913
0.138811481741
0.136845697977
0.13589050967
0.1355496644
0.135510765979
0.135630906884
0.135995259525
0.136710034762
0.137855971981
0.139530866993
0.141792397717
0.144646144221
0.148070792133
0.152032204193
0.156457108695
0.161239552459
0.166249556043
0.171355635519
0.176420366956
0.181306880665
0.185887526872
0.190048223394
0.193106866317
0.191993003729
0.187359369191
0.183060599188
0.179725873817
0.177136430481
0.17514220833
0.173626638413
0.172498238992
0.171679891706
0.171096849047
0.170704475886
0.170467080727
0.17032918358
0.17026189718
0.170245227341
0.170253407965
0.170279850121
0.170332431124
0.17042530706
0.170569623015
0.170778583141
0.1710588846
0.171406303494
0.171823012348
0.172312510353
0.172869071786
0.173496314063
0.174172112131
0.174873209167
0.175597644395
0.176327014088
0.177036390043
0.177710044705
0.178326326855
0.178869780377
0.179350013264
0.179770299553
0.18010364939
0.180373209942
0.180532917784
0.180472364159
0.180358283152
0.180338531251
0.180363071537
0.180416982645
0.180495250472
0.180596615801
0.180732296255
0.180898877012
0.181086586014
0.18130042635
0.181550289266
0.181834278203
0.182147072945
0.182482456979
0.182830305659
0.183186664072
0.183552341776
0.183921316643
0.184286086041
0.184645967773
0.184993588849
0.185328070781
0.185667432851
0.185835702137
0.185594865576
0.18514037578
0.184727576881
0.184377615394
0.184066714015
0.183768542935
0.183501740341
0.183266152305
0.183037656242
0.182812000597
0.182603342148
0.182404813643
0.182189418211
0.181976653903
0.181784671653
0.181605236805
0.1814483992
0.181305316796
0.181168262524
0.181047455684
0.180959652575
0.180921857017
0.180917091651
0.180940146166
0.181002905776
0.181096191838
0.181211199853
0.181336122304
0.181467936141
0.181608235903
0.181749443474
0.181893999009
0.182050130099
0.182204124094
0.182345420408
0.182477979427
0.182608179224
0.182744902891
0.182871809474
0.182978403582
0.183081565242
0.18317941832
0.183266898107
0.183347260459
0.183421090898
0.183488628356
0.183545651371
0.183596840556
0.183642200392
0.183690666655
0.183723363453
0.183733601876
0.183728775359
0.183687603151
0.183617945637
0.183536987162
0.183459888736
0.18339299427
0.183325543191
0.183255856813
0.183194856135
0.183144267023
0.183102214949
0.183073238851
0.183042521589
0.183015122408
0.182996283178
0.18297688092
0.182965419016
0.182957995778
0.1829516383
0.182939012037
0.182930439157
0.182928245653
0.182924741258
0.182932932193
0.182954121862
0.182989196466
0.183026059097
0.183048168873
0.183070379481
0.183089078197
0.183103117507
0.183119445653
0.1831342274
0.18316818061
0.183226988242
0.183289936597
0.183356328761
0.183445476602
0.183541829234
0.183643529008
0.183770433836
0.183909858789
0.18405638958
0.184208556784
0.184362618525
0.18452434208
0.184687792867
0.184849647302
0.185011174337
0.18517424314
0.185337320139
0.185492927147
0.185638801461
0.185778923438
0.18591629782
0.186048870322
0.186180235285
0.186304612001
0.186419330632
0.186527864696
0.186628274763
0.186727264536
0.186826255041
0.186912676125
0.186984534862
0.187044108605
0.187094188823
0.187139235751
0.187167125266
0.187131940734
0.187045514735
0.18695559453
0.186859474569
0.186755435614
0.186649409493
0.186549950775
0.186457762471
0.186363686358
0.186274508338
0.186198996538
0.18613071561
0.186068980125
0.186017371185
0.18598192545
0.185965427195
0.185990840726
0.186068873673
0.186171586638
0.186283240712
0.18639648286
0.186516259474
0.186650856289
0.186787338557
0.186904997643
0.186996872552
0.18708047971
0.187167338262
0.187245328622
0.187312645236
0.187377619182
0.187439729263
0.187487921465
0.187530538662
0.187578821419
0.187629196525
0.18768205876
0.187739732014
0.187800702354
0.187867974764
0.187942382249
0.188018266464
0.188095161596
0.18816895556
0.188232444084
0.188291321366
0.188350081032
0.188379523162
0.188341375574
0.188250178647
0.188138557382
0.188020647046
0.187910314389
0.187793232042
0.187670400177
0.18757300233
0.187502331832
0.187462704136
0.187474154931
0.187538489196
0.187656104626
0.187806145693
0.187974735772
0.188163482839
0.188359714643
0.188564795189
0.188778338726
0.188985057464
0.18919066925
0.189400350395
0.189607841907
0.18982072008
0.190043825715
0.19027589295
0.190518909199
0.190776405182
0.191051568686
0.19135627774
0.191690611007
0.192039359847
0.192396371996
0.192760998339
0.193128131337
0.193491221267
0.19383119079
0.194136190774
0.194412426069
0.194648487541
0.194836471057
0.19495158532
0.19497232838
0.194883083773
0.194693661569
0.194437005458
0.194119998053
0.193760232776
0.193375484418
0.192995707755
0.192633576201
0.192274088543
0.1919525896
0.191710922176
0.191541740048
0.191461595755
0.191538480573
0.191760651549
0.192076138589
0.192485250202
0.192979808693
0.193565443827
0.19422525505
0.19493664512
0.195696751025
0.196478740072
0.197257320397
0.19801979344
0.198752336792
0.199438516349
0.200063719885
0.200618308869
0.201095590207
0.201488413501
0.201791589967
0.202007937159
0.202129569416
0.202159119632
0.202083472546
0.20191357074
0.201693467385
0.201428316998
0.201133387172
0.200824422693
0.200500080227
0.200174011243
0.199853476144
0.199527519217
0.199189506967
0.198836876308
0.198481334962
0.198124769391
0.197743003483
0.197317513628
0.196871202652
0.196412501977
0.195929555971
0.195434000093
0.194929829087
0.194414583562
0.193897277345
0.193404016818
0.192933292438
0.192500506416
0.19213025994
0.191815818718
0.191580714766
0.191447665162
0.191433945923
0.191559591419
0.191804171996
0.192149477943
0.192598831656
0.193144585056
0.193779072743
0.194490004081
0.195268856572
0.196108888693
0.196997601923
0.197923133685
0.198872653759
0.199833120955
0.200790406831
0.201732584079
0.202651484468
0.203539752927
0.204389502886
0.205192617622
0.205943207433
0.206641719442
0.207280957148
0.207854422653
0.20836517218
0.208816295681
0.209208988074
0.209546037866
0.209832760976
0.210054132855
0.210210026616
0.210328716552
0.210416080153
0.210452013576
0.210398657675
0.210276133918
0.210137412978
0.20998915966
0.209837219307
0.209697566085
0.209571833468
0.2094664985
0.209390669529
0.20934056052
0.209359543424
0.20946736147
0.209622759288
0.209805272597
0.210016790176
0.210252612367
0.210509020205
0.21078335859
0.21106535102
0.211352032224
0.211645290294
0.211945036377
0.212251117199
0.212562516102
0.212875201698
0.213191318543
0.213510675294
0.213828267705
0.214140485108
0.214451780471
0.214767946488
0.215086067211
0.215394763201
0.215698890616
0.216008350603
0.216315614804
0.216613887871
0.216897453751
0.21716412803
0.21741993624
0.217671830923
0.217922654528
0.218173553192
0.218429710598
0.21869479796
0.218967939996
0.219252896761
0.219554639631
0.219865887603
0.220176313409
0.220506322963
0.220861755337
0.221224406175
0.221585761214
0.221933441315
0.222258326023
0.22255435678
0.222824169399
0.223063223837
0.223251382517
0.223383825111
0.22347503324
0.223537727832
0.223583491634
0.223632928822
0.223711144857
0.223841960781
0.224046239333
0.22434701535
0.224771190824
0.225340276704
0.226067195322
0.226948975404
0.227978701072
0.229138221732
0.230407883871
0.231756697363
0.233125762761
0.234459994058
0.235705717208
0.236818127396
0.23774778292
0.238436332355
0.23885336446
0.238989392272
0.23874257933
0.238150038745
0.237341942289
0.236350808736
0.235245142497
0.234106609485
0.233028687163
0.232088887142
0.23135638463
0.230901690982
0.23086715276
0.23130924252
0.232209384684
0.233528338121
0.235203484611
0.237274596844
0.239723850318
0.242478464185
0.245480713859
0.24866454061
0.251963440636
0.255307562871
0.258632247736
0.261878228308
0.264997254319
0.267949485447
0.27067467972
0.273150277042
0.275378249915
0.277335348471
0.279003632219
0.280372833073
0.281439727856
0.282201947301
0.282658590079
0.282814790168
0.282550482538
0.281871441163
0.280899940657
0.279638551701
0.27810383632
0.276308851128
0.274276819467
0.272044317746
0.269650301455
0.267138027899
0.264559450267
0.261971942257
0.259436369168
0.257013958122
0.254774782483
0.252790220741
0.251103506457
0.249745166119
0.248782003418
0.248251817521
0.248243714367
0.248753280639
0.249652932256
0.250957089123
0.252676204369
0.254772452455
0.257208854435
0.259953599844
0.263000747794
0.266326205778
0.269883800125
0.273638383355
0.277550536548
0.281581773705
0.285688488328
0.289805798311
0.29388453561
0.297868273177
0.301682268424
0.305265234374
0.308561546357
0.311506754566
0.314033891052
0.316108802076
0.317718540094
0.318809147724
0.319312457848
0.319149531512
0.318282021464
0.316808205584
0.314862339949
0.312527004288
0.30991888138
0.307212849757
0.304607185358
0.302340180694
0.300705340975
0.300057278822
0.300827324292
0.303022087496
0.306517784103
0.311401048527
0.317535494581
0.324645023406
0.332340422594
0.340135294861
0.347490841175
0.353866642132
0.358783733183
0.361843886239
0.363012850495
0.361780190582
0.358224147945
0.35324507177
0.347372633648
0.341316990577
0.335768255038
0.331409664389
0.328738165167
0.328518174319
0.330836324219
0.335090264979
0.340913185546
0.347775925617
0.35511287825
0.362246357145
0.368516443636
0.373413139424
0.376608321805
0.378447435391
0.380066504931
0.38214698619
0.384678488535
0.387627919178
0.390965242318
0.394653429884
0.3986591505
0.402954741485
0.407516022507
0.412324296337
0.417363251809
0.422611506808
0.428041749311
0.433626432872
0.439346140236
0.44518446241
0.451108687301
0.457087886407
0.463088639256
0.469061006171
0.47497577424
0.480814726928
0.486547796857
0.492144119451
0.497577605891
0.502839538044
0.507884619244
0.512699353843
0.517317756646
0.521728292032
0.525954060154
0.53003105607
0.533979194835
0.537840738184
0.541675031417
0.545545063417
0.549508397098
0.553622054965
0.557948793334
0.562548894699
0.567478480136
0.572779591248
0.578481476122
0.584598392814
0.591127116951
0.59805098038
0.60534789833
0.612979630938
0.62088651067
0.62900059308
0.637268850169
0.645652925041
0.654136697205
0.662733387553
0.671494488175
0.68051692964
0.689949845835
0.700008244298
0.710960649721
0.723154846421
0.736973738661
0.752819511321
0.771193045793
0.792614513632
0.817552544624
0.846452087807
0.86866112015
0.867197632723
0.849609681303
0.831449862601
0.813227882942
0.795289962409
0.779171150438
0.762101486332
0.748540994244
0.734080503584
0.721910040261
0.711798860901
0.700528162287
0.694099192467
0.685495818085
0.68025867782
0.675984668421
0.671226311172
0.669461009547
0.666872403171
0.665597817584
0.665179262808
0.664540466886
0.664489089169
0.664714167731
0.665175610671
0.666139321944
0.668035927455
0.671272622403
0.676275507089
0.683544350656
0.689978185601
0.689216075324
0.68288492506
0.674748306601
0.666417065837
0.656910105833
0.647622318573
0.637842868619
0.628397821902
0.619195829325
0.610049784783
0.602298365381
0.593711191925
0.587740885557
0.580550908199
0.575415976476
0.57094062272
0.565898677424
0.563700410049
0.560084854
0.5581199729
0.557022249529
0.555224255226
0.554711854506
0.554420395697
0.553939801197
0.553887084185
0.55404538214
0.554281443634
0.554733929586
0.555623787866
0.557147301232
0.559453531171
0.562689987086
0.567044015238
0.572727461335
0.579923965005
0.588789816966
0.599443830299
0.611965644797
0.62645210142
0.642937468978
0.661371714617
0.681640525234
0.703521547593
0.726696162438
0.75079895274
0.775378081683
0.799859432838
0.823602483287
0.845897881376
0.866049847779
0.883410618713
0.897385788628
0.907511585005
0.912159298904
0.912058220089
0.911322630788
0.911801240047
0.914352762515
0.92080419675
0.932961609254
0.952592298921
0.98139927912
1.02107538463
1.07340662764
1.14037939031
1.22428639412
1.32788924766
1.45461312474
1.60864131132
1.79505495702
2.01994912933
2.29026563657
2.61330261682
2.99507727288
3.41922513307
3.60962303039
3.4515177379
3.19276049968
2.94223920461
2.70809368992
2.49127561128
2.29848620878
2.12174038
1.97210376894
1.83317544053
1.71909574803
1.61439240556
1.52378832437
1.4496004495
1.37269876207
1.321312741
1.25673025376
1.21473234036
1.16769427276
1.12352675044
1.09375687932
1.04879418215
1.02524353286
0.989734217469
0.961405830199
0.939626754324
0.908455008033
0.891558162186
0.865973980261
0.848218007585
0.831428623946
0.813011136207
0.80153643078
0.785941816275
0.77732263185
0.766203209974
0.758251727103
0.753081084076
0.745629086749
0.743002561683
0.73961642604
0.736596761883
0.736109363816
0.735159191232
0.734429568705
0.734643205066
0.735150947217
0.735905096823
0.737356468614
0.740175038208
0.743322298593
0.743357981695
0.739772391915
0.735224370055
0.729961076382
0.723704108643
0.717010996605
0.710003168351
0.702213509392
0.694824861575
0.686906163191
0.679170507675
0.671952353805
0.664332179197
0.657886676099
0.651255676944
0.645462049254
0.640138290947
0.635501334753
0.631157852189
0.627957340834
0.624954320254
0.622440240885
0.621120518053
0.619399103254
0.618687852448
0.618126151195
0.617786849505
0.617698625359
0.617813664474
0.61808070758
0.618647887017
0.619756975236
0.621687866701
0.624732730636
0.629229529604
0.635603071723
0.644133165843
0.648857595305
0.645285876609
0.637762873171
0.629197332026
0.619936640309
0.61009837507
0.600040129681
0.58975304718
0.579749064564
0.56970402867
0.560403988268
0.551067452962
0.542944066443
0.534816501691
0.527937730792
0.521335631586
0.515724808016
0.510730326947
0.506206500747
0.502918740368
0.499285481838
0.497422569572
0.494865848627
0.493669093186
0.49253034668
0.491521456873
0.491245157033
0.490806917813
0.490652935489
0.490712532524
0.490781829205
0.490953401926
0.491350151619
0.492085321871
0.493260513802
0.494987312725
0.49740803949
0.500673623666
0.504893206801
0.510152353919
0.516529276486
0.524096301324
0.532963654351
0.540583436544
0.541170838737
0.536238795113
0.531053921694
0.526285551881
0.522023007216
0.51845153268
0.515470085653
0.513177715485
0.51144260414
0.5101748961
0.509284581131
0.508587191862
0.507994325691
0.507204755599
0.506326996844
0.505149666785
0.503658105763
0.501801966287
0.499556479171
0.496970674428
0.49403837776
0.490909859667
0.487558864809
0.484154996847
0.480729322143
0.477353720364
0.47416178904
0.471100632092
0.468326000489
0.465843103993
0.463674127973
0.461863752752
0.460373081028
0.459199240913
0.458383479236
0.457795625986
0.457443447799
0.457297360899
0.457235444719
0.457331965461
0.45760625186
0.457868191492
0.457708793778
0.45714565868
0.456385301621
0.455443010307
0.454397157588
0.453358386457
0.452279170548
0.451289497795
0.450454451643
0.449668496227
0.449103358496
0.448684136175
0.448324654456
0.448181988908
0.448114978113
0.448073631206
0.448151821871
0.448331066274
0.448659689315
0.449252811299
0.450235286858
0.451753282478
0.45398835049
0.457125552703
0.46138639451
0.467033392438
0.4743546385
0.48347247077
0.489016655442
0.486326248345
0.479618379423
0.47260969787
0.465637320179
0.458960854499
0.452775641505
0.447258962156
0.442556271819
0.43872889019
0.43578908568
0.433687891829
0.432341414872
0.431608322522
0.431290485606
0.431248338843
0.43143080973
0.431958432636
0.433045012695
0.434743044106
0.436930006572
0.439685949948
0.443208307392
0.447551499885
0.452794269367
0.459086333448
0.466554902448
0.47536547364
0.485713782688
0.497849350504
0.507584627125
0.507235129382
0.499609786297
0.491328348448
0.482951321387
0.47465285149
0.466596795806
0.458961059655
0.451916750976
0.445608541006
0.440121753487
0.435744480229
0.430617591472
0.424099148533
0.418945358196
0.416855671587
0.418223797415
0.421762153226
0.425890257766
0.429764307935
0.432473217119
0.434374603017
0.436780242181
0.44026127364
0.444914233077
0.450789663171
0.453809109121
0.451322078037
0.44651436317
0.441289093282
0.435059235234
0.423207040184
0.405944271438
0.388425929751
0.37280567631
0.360854392413
0.353538683791
0.351719656224
0.35546292382
0.363301792009
0.373837787057
0.386146266177
0.399037308504
0.41121964432
0.421571456536
0.429221470526
0.433779120581
0.43688613132
0.44071413107
0.445933313668
0.452576178846
0.456397131855
0.454250063524
0.449436574267
0.444420055829
0.439731018505
0.432805330829
0.422137366317
0.41114743899
0.40279289979
0.398312066184
0.398726051443
0.403182396205
0.409779282296
0.417512748025
0.425054179681
0.431284070503
0.435346964863
0.438098681344
0.441422625052
0.446179285738
0.452629790943
0.461025437398
0.471708241119
0.484144765217
0.48916779636
0.483167112884
0.47371387719
0.4637063413
0.453346980397
0.443201372814
0.425748820572
0.398686480388
0.370276808409
0.345258732244
0.326681828194
0.315749866819
0.313773665639
0.320178786634
0.332340946684
0.348344018809
0.366646743096
0.385580539059
0.403343373989
0.418397327668
0.429596393772
0.436349509339
0.440799912832
0.446190951526
0.453762294178
0.46387332767
0.47683808153
0.492951178484
0.504154809907
0.50101861004
0.489487555759
0.477104806397
0.464314893615
0.451805229404
0.43452179546
0.40469188756
0.367554588414
0.332848968045
0.304251001856
0.284019845342
0.273155831169
0.273224853932
0.282589125304
0.297917551674
0.31788333444
0.340547383826
0.36410574996
0.386646513888
0.406487218199
0.422337382257
0.43332359432
0.439576862645
0.444222990757
0.450371890298
0.455584276119
0.45495235823
0.449878388229
0.44397874449
0.43271322862
0.415402626609
0.397509518457
0.381919105964
0.370824228804
0.365227061513
0.366415849006
0.373163550907
0.383162225328
0.395485375092
0.408551312637
0.420876245765
0.431116722012
0.438255155267
0.442454986466
0.446139190745
0.451351128484
0.458433243758
0.467711368076
0.476827447972
0.478038292098
0.471637778687
0.464017694476
0.456084453495
0.448456116876
0.436030311474
0.416767517181
0.396678061797
0.379812673581
0.368462751932
0.363520042474
0.365930667627
0.37392941733
0.384960023313
0.398052791193
0.411580773951
0.424022295515
0.434091742751
0.440841032051
0.444843476567
0.448671477564
0.454128925689
0.461493668162
0.471038718732
0.482919230061
0.49072709619
0.487924766846
0.479387472412
0.47034116302
0.461012473996
0.452154075731
0.438339852206
0.416041855573
0.391343095081
0.369593136239
0.353429077371
0.343957136143
0.342400364728
0.348131213324
0.358754610078
0.372600276435
0.388291169606
0.404324126723
0.41907269309
0.431283550509
0.440112262957
0.44529269618
0.448992055578
0.453764739527
0.460275782065
0.468806773461
0.479341863121
0.485643700178
0.482569196704
0.475029377023
0.467128034489
0.4591245948
0.451403661933
0.438451967708
0.419079782408
0.399707057444
0.383676088925
0.37307305391
0.368681659197
0.371222321518
0.378945944971
0.389488095624
0.401964196085
0.414899863598
0.426924180057
0.436891933036
0.443941340924
0.448027088123
0.451196996363
0.455429307147
0.461080392517
0.468354063922
0.477152115858
0.48203753457
0.479223152577
0.473167563209
0.466916103273
0.460644002412
0.454830590284
0.447001286267
0.434474918189
0.420340113465
0.408553478074
0.400443642641
0.396414995593
0.39710339318
0.401360258213
0.407350982304
0.414325870268
0.421186534238
0.426987331545
0.430887840708
0.43252590979
0.431046059714
0.426220202345
0.418863034016
0.409420825046
0.398547277853
0.387016274673
0.375601049572
0.364968940194
0.355678854323
0.348105355235
0.342401903573
0.338504322075
0.336167765363
0.335077968169
0.334907590611
0.335220227317
0.33554353619
0.335578450928
0.335135313184
0.334366736843
0.333702931059
0.333801744089
0.335211264102
0.338269312977
0.343364076564
0.350704974803
0.360310055563
0.371917542719
0.38501190195
0.398868408545
0.412618821277
0.425350929994
0.43624979816
0.444666667208
0.45014102971
0.453241795555
0.45598499754
0.459689045863
0.464440281966
0.470169597145
0.473077679153
0.470968318718
0.467010084172
0.462980803709
0.459062932711
0.45500689062
0.448207701575
0.43914273668
0.431154453246
0.425338398888
0.422293052638
0.422517582779
0.425314404272
0.429368574499
0.433957135019
0.438132246951
0.441023689339
0.44204361256
0.43995539516
0.434180310162
0.42507055582
0.412626272982
0.397224648783
0.379415434656
0.359950909071
0.339793706259
0.320047449883
0.301814213151
0.286131377229
0.27392954936
0.265984057633
0.263084975811
0.266026895285
0.27389744009
0.285482294182
0.300485050217
0.317987913073
0.336821010665
0.355714705479
0.373420815095
0.388750634655
0.400656855501
0.408429673336
0.411998783475
0.410805644849
0.404812952764
0.395533776341
0.384342760752
0.372406788892
0.360973748707
0.351295138337
0.344444427147
0.341322760166
0.343100667219
0.349231340853
0.358544591861
0.370784036783
0.385055182687
0.400318923279
0.415456500473
0.429356736431
0.441052265972
0.449818113174
0.455273780135
0.458481227979
0.461682771107
0.466047929958
0.471687057065
0.478694294216
0.487210290837
0.497446382698
0.509609184662
0.523479021093
0.530346514539
0.525382715817
0.516001063082
0.506166146012
0.496120571246
0.486045503104
0.475945884287
0.466442605215
0.451501644471
0.427275164538
0.399973570979
0.374732462039
0.353942124496
0.338495351348
0.328705199648
0.32432255021
0.325453644785
0.330448988209
0.337132239451
0.344636735791
0.351714418277
0.357319428416
0.360647416066
0.361213631649
0.358175064734
0.351885718268
0.343629912742
0.334250696269
0.32502489335
0.317302102099
0.312297481097
0.311728201738
0.316221000885
0.325176657347
0.33826227778
0.354826008309
0.373818975396
0.393820624203
0.413299923929
0.430757061326
0.444885833654
0.454726228164
0.460375231925
0.464805695124
0.469772716189
0.47096406618
0.467541647363
0.461499994174
0.449225469638
0.431319631729
0.412078591129
0.39308108157
0.375578419159
0.360269736351
0.347429183378
0.337108176606
0.329219548273
0.323641725619
0.320318736996
0.319467489514
0.32133418325
0.325700713511
0.332449486843
0.34177394518
0.353630018643
0.367703377531
0.383454155659
0.400080131735
0.416572604594
0.431853754934
0.444889723658
0.454796274273
0.460993832899
0.464810303032
0.468977622174
0.47489652121
0.482896139414
0.493332085593
0.506680256532
0.517365938014
0.516019849385
0.505962216688
0.494475448668
0.482062943754
0.467870569933
0.4402961759
0.397857623048
0.35184253707
0.306910875412
0.267067713364
0.23462789015
0.211105623118
0.197392571971
0.195043024564
0.203653491345
0.220547175147
0.244018109595
0.272704870566
0.304917311011
0.338489275376
0.371250294425
0.40115751969
0.426454475359
0.445802804711
0.45836305099