/*--------------------------------*- C++ -*----------------------------------*\
  =========                 |
  \\      /  F ield         | OpenFOAM: The Open Source CFD Toolbox
   \\    /   O peration     | Website:  https://openfoam.org
    \\  /    A nd           | Version:  6
     \\/     M anipulation  |
\*---------------------------------------------------------------------------*/
FoamFile
{
    version     2.0;
    format      ascii;
    class       volScalarField;
    location    "0.0004225";
    object      O;
}
// * * * * * * * * * * * * * * * * * * * * * * * * * * * * * * * * * * * * * //

dimensions      [0 0 0 0 0 0 0];

internalField   nonuniform List<scalar> 
32000
(
1.57556965338e-05
1.5755695759e-05
1.57556948672e-05
1.57556944223e-05
1.5755693611e-05
1.57556924133e-05
1.57556917619e-05
1.57556911381e-05
1.57556898101e-05
1.57556882568e-05
1.57556869125e-05
1.57556863665e-05
1.5755685577e-05
1.57556838776e-05
1.57556811703e-05
1.57556779809e-05
1.5755675819e-05
1.57556748539e-05
1.57556744273e-05
1.57556737412e-05
1.57556724423e-05
1.57556702736e-05
1.57556678127e-05
1.57556648964e-05
1.57556629762e-05
1.57556617312e-05
1.57556604158e-05
1.57556590119e-05
1.57556566069e-05
1.57556531854e-05
1.57556497652e-05
1.57556476652e-05
1.57556464353e-05
1.57556445515e-05
1.57556421157e-05
1.57556380039e-05
1.57556332941e-05
1.57556288927e-05
1.57556255675e-05
1.57556235538e-05
1.57556220286e-05
1.5755618634e-05
1.57556147455e-05
1.5755611043e-05
1.57556084506e-05
1.57556069483e-05
1.57556054717e-05
1.57556033386e-05
1.57555997923e-05
1.57555949461e-05
1.57555893238e-05
1.57555815212e-05
1.57555728806e-05
1.5755565775e-05
1.57555578556e-05
1.57555535708e-05
1.57555502835e-05
1.57555483277e-05
1.57555463022e-05
1.57555425106e-05
1.57555383556e-05
1.57555334874e-05
1.57555290912e-05
1.57555229402e-05
1.57555191246e-05
1.57555129847e-05
1.57555070262e-05
1.57555025445e-05
1.57554947973e-05
1.57554879897e-05
1.57554824133e-05
1.57554743934e-05
1.57554687218e-05
1.5755464957e-05
1.57554625623e-05
1.57554592847e-05
1.57554568133e-05
1.57554516968e-05
1.57554459775e-05
1.57554386123e-05
1.57554309583e-05
1.57554195464e-05
1.57554114147e-05
1.57554065425e-05
1.57554033165e-05
1.57553998905e-05
1.57553957571e-05
1.57553916816e-05
1.57553824618e-05
1.57553761793e-05
1.57553662272e-05
1.57553552948e-05
1.57553379881e-05
1.57553273241e-05
1.57553181274e-05
1.57553098873e-05
1.57553045704e-05
1.57552969409e-05
1.575529256e-05
1.5755289674e-05
1.57552879609e-05
1.57552844054e-05
1.57552774175e-05
1.57552701738e-05
1.57552636652e-05
1.575525666e-05
1.57552438776e-05
1.57552262492e-05
1.57552107232e-05
1.57551967625e-05
1.57551783308e-05
1.57551688523e-05
1.57551547859e-05
1.57551456988e-05
1.57551397449e-05
1.57551317205e-05
1.57551277931e-05
1.57551219616e-05
1.57551175518e-05
1.57551120979e-05
1.57551060603e-05
1.57551004907e-05
1.57550927918e-05
1.5755084374e-05
1.57550774565e-05
1.57550638802e-05
1.57550528952e-05
1.57550336831e-05
1.57550141233e-05
1.57550049546e-05
1.57549967986e-05
1.57549915779e-05
1.57549871252e-05
1.57549820515e-05
1.5754972906e-05
1.57549587147e-05
1.57549488046e-05
1.57549380726e-05
1.57549198195e-05
1.57549093144e-05
1.57548950552e-05
1.57548840715e-05
1.57548628899e-05
1.57548543026e-05
1.57548405686e-05
1.57548298651e-05
1.57548236442e-05
1.57548114804e-05
1.57548034582e-05
1.57547975298e-05
1.57547896078e-05
1.57547793196e-05
1.5754772113e-05
1.57547637741e-05
1.57547572009e-05
1.57547459087e-05
1.57547387003e-05
1.57547267174e-05
1.57547197934e-05
1.57547070965e-05
1.57546895074e-05
1.57546784045e-05
1.57546649899e-05
1.57546354492e-05
1.57546129208e-05
1.575458802e-05
1.57545627044e-05
1.57545424348e-05
1.57545196325e-05
1.57545073511e-05
1.57544925486e-05
1.57544775214e-05
1.57544718688e-05
1.57544619285e-05
1.5754452374e-05
1.57544477044e-05
1.57544399414e-05
1.57544355589e-05
1.57544321664e-05
1.5754424165e-05
1.57544127382e-05
1.57543978638e-05
1.57543862999e-05
1.57543704148e-05
1.57543569139e-05
1.57543388961e-05
1.57543226861e-05
1.5754298991e-05
1.57542799034e-05
1.57542674296e-05
1.57542450073e-05
1.57542343236e-05
1.57542181588e-05
1.57542055191e-05
1.57541980032e-05
1.57541845632e-05
1.57541743662e-05
1.57541611526e-05
1.57541551476e-05
1.57541430878e-05
1.57541238527e-05
1.57541151021e-05
1.57541034259e-05
1.57540815989e-05
1.57540568526e-05
1.57540318223e-05
1.57540005415e-05
1.5753976331e-05
1.57539376032e-05
1.57539133656e-05
1.57538861121e-05
1.57538677476e-05
1.57538469568e-05
1.57538273366e-05
1.57538167352e-05
1.57538094722e-05
1.57537979701e-05
1.57537834484e-05
1.57537768869e-05
1.57537664838e-05
1.57537599513e-05
1.57537497843e-05
1.57537444371e-05
1.5753737615e-05
1.5753724837e-05
1.57537074196e-05
1.57536993084e-05
1.57536910655e-05
1.57536679015e-05
1.57536482974e-05
1.57536392434e-05
1.57536144873e-05
1.57535758151e-05
1.57535596446e-05
1.57535348295e-05
1.5753502439e-05
1.57534816754e-05
1.57534652875e-05
1.57534500983e-05
1.57534247434e-05
1.57534125601e-05
1.57533971697e-05
1.57533870834e-05
1.57533780522e-05
1.57533591681e-05
1.57533384403e-05
1.57533306567e-05
1.57533130647e-05
1.57532936505e-05
1.57532826816e-05
1.57532571063e-05
1.5753236926e-05
1.57532232509e-05
1.575318788e-05
1.57531659499e-05
1.57531479424e-05
1.5753112551e-05
1.57530779668e-05
1.57530531298e-05
1.57530171981e-05
1.57529834891e-05
1.57529696367e-05
1.57529482016e-05
1.57529187806e-05
1.57529074925e-05
1.57528932778e-05
1.57528752917e-05
1.57528633686e-05
1.57528493573e-05
1.5752831395e-05
1.57528236707e-05
1.57528161738e-05
1.57527975483e-05
1.57527688836e-05
1.57527545753e-05
1.57527471531e-05
1.57527283137e-05
1.5752695553e-05
1.5752673783e-05
1.57526644541e-05
1.57526381327e-05
1.57525964803e-05
1.57525804519e-05
1.57525643604e-05
1.57525378044e-05
1.57525054495e-05
1.57524783168e-05
1.57524598772e-05
1.57524399811e-05
1.57524143663e-05
1.57523945116e-05
1.57523820922e-05
1.57523668013e-05
1.57523404434e-05
1.57523144138e-05
1.57522904182e-05
1.57522811239e-05
1.57522596126e-05
1.57522264069e-05
1.5752212004e-05
1.57521818012e-05
1.57521629993e-05
1.57521452079e-05
1.57521089452e-05
1.57520760296e-05
1.57520598626e-05
1.57520258341e-05
1.57519941513e-05
1.57519716976e-05
1.57519489541e-05
1.57519357885e-05
1.57519178309e-05
1.57518874418e-05
1.57518667161e-05
1.57518541985e-05
1.57518288752e-05
1.57518178318e-05
1.57518025013e-05
1.57517694929e-05
1.57517415153e-05
1.57517324302e-05
1.57517198524e-05
1.5751689151e-05
1.57516497322e-05
1.57516351032e-05
1.57516214276e-05
1.57515946987e-05
1.57515568157e-05
1.57515272361e-05
1.57515110112e-05
1.57514875478e-05
1.57514528946e-05
1.57514145084e-05
1.57513766051e-05
1.57513513632e-05
1.57513344917e-05
1.5751314017e-05
1.57512723733e-05
1.57512325758e-05
1.57511984808e-05
1.57511582906e-05
1.57511325804e-05
1.57511183369e-05
1.57511018399e-05
1.57510659904e-05
1.57510325354e-05
1.57510154267e-05
1.57509963362e-05
1.57509660032e-05
1.57509419908e-05
1.57509331074e-05
1.57509157736e-05
1.57508848268e-05
1.57508645946e-05
1.57508558793e-05
1.57508396573e-05
1.57508136307e-05
1.57507896656e-05
1.57507778564e-05
1.57507588695e-05
1.57507250884e-05
1.57507039471e-05
1.5750681079e-05
1.57506543151e-05
1.57506391939e-05
1.57506112524e-05
1.57505716366e-05
1.5750542564e-05
1.5750521384e-05
1.57504915457e-05
1.57504658819e-05
1.57504409033e-05
1.5750421991e-05
1.57503973806e-05
1.57503646054e-05
1.5750334821e-05
1.57503069433e-05
1.57502849717e-05
1.57502672384e-05
1.57502423049e-05
1.57502013373e-05
1.5750154736e-05
1.5750120424e-05
1.57501052115e-05
1.57500888799e-05
1.57500491594e-05
1.57499928254e-05
1.57499522205e-05
1.57499298775e-05
1.57499067968e-05
1.57498649477e-05
1.57498294262e-05
1.57498005679e-05
1.57497655826e-05
1.57497158639e-05
1.57496799274e-05
1.57496493857e-05
1.57496194914e-05
1.57495844552e-05
1.57495515971e-05
1.57495248148e-05
1.57495131637e-05
1.57494850967e-05
1.57494394935e-05
1.57494104922e-05
1.57493986954e-05
1.57493761697e-05
1.57493344487e-05
1.57492955823e-05
1.57492593084e-05
1.57492273773e-05
1.57492065922e-05
1.57491914425e-05
1.57491717404e-05
1.57491351558e-05
1.57490885613e-05
1.57490540468e-05
1.57490362159e-05
1.57490222824e-05
1.57489918912e-05
1.57489596987e-05
1.57489363284e-05
1.57489236735e-05
1.57489083328e-05
1.57488955392e-05
1.57488684649e-05
1.57488286696e-05
1.57488013006e-05
1.57487923382e-05
1.57487806358e-05
1.57487561907e-05
1.57487196358e-05
1.57486825665e-05
1.5748646376e-05
1.57486148724e-05
1.57485810472e-05
1.57485353145e-05
1.5748494339e-05
1.57484628666e-05
1.57483852714e-05
1.57483132986e-05
1.57482899994e-05
1.57482573956e-05
1.57482125053e-05
1.57481765183e-05
1.5748161526e-05
1.5748143635e-05
1.57481102489e-05
1.57480703185e-05
1.57480387506e-05
1.57480145887e-05
1.57479975908e-05
1.57479853742e-05
1.57479709976e-05
1.57479535314e-05
1.57479285406e-05
1.574789731e-05
1.57478606552e-05
1.5747828079e-05
1.57477925732e-05
1.57477645052e-05
1.57477315551e-05
1.5747703123e-05
1.57476609148e-05
1.57476107786e-05
1.57475751189e-05
1.57475256904e-05
1.57474674516e-05
1.57474442552e-05
1.57474106209e-05
1.57473654539e-05
1.5747320732e-05
1.57472860103e-05
1.57472580808e-05
1.57472366522e-05
1.57472150843e-05
1.57471794324e-05
1.57471273621e-05
1.57470876255e-05
1.57470519171e-05
1.57470291799e-05
1.57470111994e-05
1.57469610423e-05
1.57469212921e-05
1.57469009493e-05
1.57468659847e-05
1.57468304985e-05
1.57467886857e-05
1.57467343073e-05
1.57466908482e-05
1.57466603061e-05
1.57466010716e-05
1.57464965303e-05
1.57464561174e-05
1.57464301684e-05
1.57463990172e-05
1.57463778942e-05
1.57463461594e-05
1.57463046544e-05
1.57462645987e-05
1.57462302554e-05
1.57462088148e-05
1.57461963835e-05
1.57461743236e-05
1.57461512428e-05
1.57461403933e-05
1.57461238218e-05
1.57461045137e-05
1.57460764846e-05
1.57460448417e-05
1.57460097635e-05
1.57459874767e-05
1.57459733105e-05
1.57459490056e-05
1.57459207398e-05
1.5745881645e-05
1.57458306572e-05
1.57457936328e-05
1.57457731309e-05
1.57457541817e-05
1.57457124157e-05
1.57456540011e-05
1.57456141143e-05
1.57455806266e-05
1.57454974994e-05
1.57454424831e-05
1.57454161331e-05
1.57453717397e-05
1.57453183531e-05
1.5745280598e-05
1.57452439113e-05
1.57451516836e-05
1.57450636253e-05
1.5745037472e-05
1.57450066233e-05
1.57449836881e-05
1.57449608165e-05
1.57449113295e-05
1.57448688902e-05
1.57448430756e-05
1.57448295715e-05
1.57448011929e-05
1.57447381495e-05
1.57447002278e-05
1.57446669293e-05
1.57446331164e-05
1.57445919903e-05
1.57445411118e-05
1.57445006669e-05
1.57444632397e-05
1.57444282387e-05
1.57444115589e-05
1.57443918928e-05
1.57443400392e-05
1.57442893533e-05
1.57442516534e-05
1.57442349977e-05
1.57442157863e-05
1.57441566074e-05
1.57441057024e-05
1.57440732084e-05
1.57440280278e-05
1.57439882586e-05
1.57439469665e-05
1.57439076317e-05
1.57438617771e-05
1.57438131444e-05
1.57437750407e-05
1.57437302733e-05
1.57436928547e-05
1.57436048705e-05
1.57435637862e-05
1.57435292312e-05
1.57434935751e-05
1.57434510225e-05
1.57434217852e-05
1.57434027076e-05
1.57433710399e-05
1.57433145934e-05
1.57432702628e-05
1.57432390265e-05
1.5743211882e-05
1.57431832103e-05
1.57431520471e-05
1.57430902997e-05
1.57430624341e-05
1.57430145413e-05
1.57429831917e-05
1.57429509988e-05
1.57429114027e-05
1.57428623407e-05
1.57428087468e-05
1.57427791278e-05
1.57427307109e-05
1.57426860181e-05
1.57426434353e-05
1.57426054184e-05
1.57425845366e-05
1.57425320073e-05
1.57424790817e-05
1.57424455658e-05
1.57423925564e-05
1.57423633121e-05
1.57423257987e-05
1.57422845062e-05
1.57422497372e-05
1.5742184222e-05
1.57420893121e-05
1.57420130314e-05
1.57419575038e-05
1.5741876297e-05
1.57418437323e-05
1.57418197378e-05
1.57417811951e-05
1.57417420865e-05
1.57416972709e-05
1.5741659369e-05
1.57416318006e-05
1.57415937503e-05
1.57415678673e-05
1.57415408548e-05
1.57415224735e-05
1.57414846916e-05
1.57414396361e-05
1.57413892817e-05
1.57413541034e-05
1.57413169751e-05
1.57412839842e-05
1.57412468441e-05
1.57411946651e-05
1.57411457005e-05
1.57411008318e-05
1.57410608379e-05
1.57410345711e-05
1.57409891993e-05
1.57409231001e-05
1.57408573353e-05
1.57407932715e-05
1.57407371191e-05
1.57406750759e-05
1.57405901012e-05
1.57404945123e-05
1.57404587478e-05
1.57404359876e-05
1.57404005843e-05
1.57403668203e-05
1.57403385627e-05
1.57403158221e-05
1.57402760421e-05
1.57402248828e-05
1.57401873485e-05
1.5740145123e-05
1.57400906164e-05
1.57400415128e-05
1.57400008981e-05
1.57399765392e-05
1.57399486155e-05
1.57399207228e-05
1.57398891162e-05
1.57398379663e-05
1.5739783056e-05
1.57397330263e-05
1.57397037296e-05
1.57396632637e-05
1.57395734835e-05
1.57394529501e-05
1.57393520082e-05
1.57393076843e-05
1.57392768117e-05
1.57392402487e-05
1.57392133702e-05
1.5739188511e-05
1.5739147538e-05
1.5739090936e-05
1.57390579076e-05
1.57390211483e-05
1.57389801213e-05
1.57389332921e-05
1.57388868714e-05
1.57388354523e-05
1.57387955378e-05
1.5738747826e-05
1.57387010008e-05
1.57386541475e-05
1.57386070853e-05
1.57385634522e-05
1.57385399076e-05
1.57384946247e-05
1.57384030247e-05
1.57383189198e-05
1.57382649629e-05
1.57382234514e-05
1.5738191722e-05
1.57381423726e-05
1.57380523344e-05
1.57379933069e-05
1.57379682494e-05
1.57379332853e-05
1.57379101425e-05
1.57378555227e-05
1.5737807987e-05
1.57377835289e-05
1.57377398202e-05
1.57377116175e-05
1.57376789238e-05
1.57376432611e-05
1.57376160203e-05
1.57375740822e-05
1.57375170552e-05
1.57374812885e-05
1.57374357262e-05
1.57373938835e-05
1.57373585194e-05
1.57373187227e-05
1.57372690539e-05
1.57372199383e-05
1.57371726824e-05
1.57371361595e-05
1.57371094197e-05
1.57370531222e-05
1.57369651555e-05
1.57368692208e-05
1.57367755344e-05
1.57366853052e-05
1.57365990302e-05
1.57365072275e-05
1.5736452092e-05
1.57364288858e-05
1.57363993405e-05
1.57363640047e-05
1.57362774969e-05
1.57362221758e-05
1.57361992074e-05
1.57361666708e-05
1.57361185406e-05
1.57360640197e-05
1.57360163654e-05
1.57359774739e-05
1.5735949383e-05
1.57358742105e-05
1.57357748006e-05
1.57357394102e-05
1.57357086628e-05
1.57356553937e-05
1.57356226172e-05
1.57355917831e-05
1.57355252817e-05
1.57354400817e-05
1.5735361736e-05
1.573530309e-05
1.57352794083e-05
1.57352320695e-05
1.57352002676e-05
1.57351635635e-05
1.57350994471e-05
1.57350300282e-05
1.57349660102e-05
1.57349059622e-05
1.57348459522e-05
1.57347878581e-05
1.57347314169e-05
1.573467056e-05
1.57345971348e-05
1.5734514256e-05
1.57344285834e-05
1.57343320938e-05
1.57342836512e-05
1.57342684484e-05
1.57342422355e-05
1.57342005486e-05
1.57341397205e-05
1.5734095299e-05
1.57340529677e-05
1.5734014159e-05
1.57339985805e-05
1.5733967279e-05
1.5733917286e-05
1.57338582947e-05
1.57338107644e-05
1.57337847181e-05
1.57337335069e-05
1.57336426285e-05
1.57335574691e-05
1.57335320361e-05
1.57334996383e-05
1.57334748273e-05
1.57334521539e-05
1.57334115532e-05
1.57333548789e-05
1.57333064629e-05
1.57332711415e-05
1.57332055651e-05
1.57331758153e-05
1.5733127352e-05
1.5733073805e-05
1.57330483855e-05
1.57330103381e-05
1.57329343936e-05
1.57328313147e-05
1.57327356723e-05
1.57326654166e-05
1.57326030675e-05
1.57325422723e-05
1.57324807882e-05
1.57324129177e-05
1.57323578703e-05
1.57323060173e-05
1.57322578484e-05
1.57322075096e-05
1.57321531022e-05
1.57320901396e-05
1.57320197093e-05
1.5731947925e-05
1.57318801946e-05
1.57318138216e-05
1.57317466608e-05
1.57316764647e-05
1.57316080949e-05
1.57315419671e-05
1.57314614223e-05
1.57313862813e-05
1.57313210113e-05
1.57312672079e-05
1.57312160051e-05
1.57311673038e-05
1.57311070606e-05
1.57310194608e-05
1.57309668923e-05
1.57309466461e-05
1.57309099656e-05
1.57308497124e-05
1.57307918683e-05
1.57307563677e-05
1.57307270398e-05
1.57306822214e-05
1.57306396216e-05
1.57305997626e-05
1.57305444802e-05
1.57305004107e-05
1.57304504346e-05
1.57304051291e-05
1.57303794708e-05
1.57303320299e-05
1.57302530836e-05
1.57301727524e-05
1.57301041088e-05
1.57300286863e-05
1.57299620283e-05
1.57298809766e-05
1.57297951707e-05
1.57297152171e-05
1.57296509836e-05
1.57295930268e-05
1.57295433364e-05
1.57294875241e-05
1.5729428209e-05
1.57293675083e-05
1.57292966028e-05
1.57292171348e-05
1.57291415413e-05
1.57290857387e-05
1.57290391685e-05
1.57289881764e-05
1.57289305948e-05
1.57288998667e-05
1.57288657558e-05
1.57288094643e-05
1.57287291174e-05
1.57286315717e-05
1.572853855e-05
1.57284670814e-05
1.57284136794e-05
1.57283696627e-05
1.57283289383e-05
1.57282911626e-05
1.57282414913e-05
1.57281786565e-05
1.57281085098e-05
1.57280275462e-05
1.5727930119e-05
1.57278501738e-05
1.57278285032e-05
1.5727800354e-05
1.57277653138e-05
1.57277175872e-05
1.57276627349e-05
1.57276134614e-05
1.57275759508e-05
1.57275512894e-05
1.57274986539e-05
1.57274107152e-05
1.57273214277e-05
1.57272463013e-05
1.5727174547e-05
1.57271068591e-05
1.5727045017e-05
1.57269807038e-05
1.57269032948e-05
1.57268104888e-05
1.57267176594e-05
1.57266347638e-05
1.57265583183e-05
1.57264834582e-05
1.57264006235e-05
1.57263337741e-05
1.57262738731e-05
1.57262486334e-05
1.57262120325e-05
1.57261614933e-05
1.57261099949e-05
1.5726066686e-05
1.57260377164e-05
1.57259867114e-05
1.57259105233e-05
1.57258340515e-05
1.57257469739e-05
1.57256910823e-05
1.57256680464e-05
1.57256269399e-05
1.57255735476e-05
1.57255190006e-05
1.57254861548e-05
1.57254534281e-05
1.57253870863e-05
1.57252939187e-05
1.57251969158e-05
1.57250994956e-05
1.57250288911e-05
1.57249825176e-05
1.57247993903e-05
1.57246181876e-05
1.57245460134e-05
1.57244643169e-05
1.57243816005e-05
1.57242963798e-05
1.57242135834e-05
1.57241352613e-05
1.57240569345e-05
1.57239882128e-05
1.57239229541e-05
1.57238695235e-05
1.57238030639e-05
1.5723709799e-05
1.57236718406e-05
1.57236493786e-05
1.5723620359e-05
1.57235811622e-05
1.5723540423e-05
1.57235045018e-05
1.57234709084e-05
1.57234341635e-05
1.57233870878e-05
1.57233265809e-05
1.57232741476e-05
1.57232323544e-05
1.57231922974e-05
1.57231516154e-05
1.5723108898e-05
1.57230718642e-05
1.57230400383e-05
1.57230019085e-05
1.57229565174e-05
1.57229049243e-05
1.57228493099e-05
1.57227929856e-05
1.57227417752e-05
1.57227097702e-05
1.57226720107e-05
1.57225911688e-05
1.5722497878e-05
1.57224411916e-05
1.57223260181e-05
1.57221401938e-05
1.57219096487e-05
1.57217008228e-05
1.57216408685e-05
1.57215799548e-05
1.57215131103e-05
1.5721426763e-05
1.57213672534e-05
1.57213469245e-05
1.57213172107e-05
1.57212663253e-05
1.57212137375e-05
1.57211509979e-05
1.57211051455e-05
1.57210501233e-05
1.57209939609e-05
1.57209636671e-05
1.57209261731e-05
1.5720881008e-05
1.57208428368e-05
1.57207978601e-05
1.57207277855e-05
1.57206451842e-05
1.57205947295e-05
1.5720524885e-05
1.5720342645e-05
1.57200782612e-05
1.57199930561e-05
1.57199241477e-05
1.5719854034e-05
1.57198235677e-05
1.57197932381e-05
1.57197747322e-05
1.57197362801e-05
1.57196737288e-05
1.57196125488e-05
1.57195904073e-05
1.57195565093e-05
1.57195001748e-05
1.57194448126e-05
1.57194247596e-05
1.57194060528e-05
1.57193756151e-05
1.57193238156e-05
1.57192543839e-05
1.57191869078e-05
1.57191287271e-05
1.57190861656e-05
1.57190535904e-05
1.5718986901e-05
1.57189228338e-05
1.57188333183e-05
1.57186845147e-05
1.57184974511e-05
1.57183149163e-05
1.57181551316e-05
1.5718010641e-05
1.57178854626e-05
1.57177045234e-05
1.57176236377e-05
1.57175625163e-05
1.57174997383e-05
1.57174215615e-05
1.57173530699e-05
1.57173260309e-05
1.57172866101e-05
1.57172364984e-05
1.57172041469e-05
1.57171604643e-05
1.57171031584e-05
1.57170541195e-05
1.57170053157e-05
1.57169558359e-05
1.5716909014e-05
1.57168630999e-05
1.57168174577e-05
1.57167698105e-05
1.57167187079e-05
1.57166641324e-05
1.5716607438e-05
1.57165502169e-05
1.57164926715e-05
1.57164361759e-05
1.57163845659e-05
1.57163443672e-05
1.57163042225e-05
1.57162381653e-05
1.57161601497e-05
1.57160305901e-05
1.57158763333e-05
1.57157408148e-05
1.57156323211e-05
1.57155258926e-05
1.57154211956e-05
1.57153261001e-05
1.57152376687e-05
1.57150937026e-05
1.57150073484e-05
1.57149292521e-05
1.57148471052e-05
1.57148131148e-05
1.57147770576e-05
1.57147333647e-05
1.57146881048e-05
1.57146435136e-05
1.57145930307e-05
1.57145332789e-05
1.57144797698e-05
1.57144318272e-05
1.5714382337e-05
1.57143300065e-05
1.57142760329e-05
1.57142222625e-05
1.57141686323e-05
1.57141166211e-05
1.57140677632e-05
1.57140265349e-05
1.57139537864e-05
1.57138285221e-05
1.57136679012e-05
1.57134998335e-05
1.57133474239e-05
1.5713210193e-05
1.57130862639e-05
1.57129823177e-05
1.57128915404e-05
1.57128194997e-05
1.57127541816e-05
1.57126968925e-05
1.57126363091e-05
1.57125123009e-05
1.57123524323e-05
1.57123020654e-05
1.57122643977e-05
1.57122261785e-05
1.57121787046e-05
1.57121227156e-05
1.57120623338e-05
1.57120039021e-05
1.57119536207e-05
1.57119075469e-05
1.57118573833e-05
1.5711794156e-05
1.57116942545e-05
1.57116300939e-05
1.57115705391e-05
1.57115155221e-05
1.57114617303e-05
1.57114178477e-05
1.57113678539e-05
1.5711319466e-05
1.57112631156e-05
1.57112016915e-05
1.57111408301e-05
1.57110794015e-05
1.57110150787e-05
1.5710963647e-05
1.57108875335e-05
1.57107563404e-05
1.57105778984e-05
1.57104631522e-05
1.5710318466e-05
1.57102501534e-05
1.57101875145e-05
1.57101276088e-05
1.57100771676e-05
1.57100321387e-05
1.57099858221e-05
1.57099272017e-05
1.57098623839e-05
1.57097984082e-05
1.5709736507e-05
1.57096764852e-05
1.57096197157e-05
1.57095421781e-05
1.57094316547e-05
1.5709274207e-05
1.57091500337e-05
1.5709051364e-05
1.57089517011e-05
1.57088575284e-05
1.57087565966e-05
1.57086481478e-05
1.57085416848e-05
1.57084371533e-05
1.57083276148e-05
1.57082072866e-05
1.57080718052e-05
1.57079230895e-05
1.57077768981e-05
1.57076464464e-05
1.57075288671e-05
1.5707347518e-05
1.57072601678e-05
1.57071893533e-05
1.57071488542e-05
1.57071043984e-05
1.57070450407e-05
1.57069763578e-05
1.57069180177e-05
1.57068694586e-05
1.57068268167e-05
1.57067808169e-05
1.57067195723e-05
1.57066664382e-05
1.57065642241e-05
1.57064408125e-05
1.57063603365e-05
1.5706282373e-05
1.57062402066e-05
1.5706191727e-05
1.57060987401e-05
1.57059840839e-05
1.57059349719e-05
1.5705891655e-05
1.57058360575e-05
1.57057487817e-05
1.57056335681e-05
1.57055811276e-05
1.57055426879e-05
1.57054999669e-05
1.57054484988e-05
1.5705390261e-05
1.57053344452e-05
1.5705283716e-05
1.57052270937e-05
1.5705163304e-05
1.57051053422e-05
1.57050534607e-05
1.5704998373e-05
1.5704940296e-05
1.57048820395e-05
1.57048301117e-05
1.57047767913e-05
1.57046925159e-05
1.57046037356e-05
1.57045200747e-05
1.5704355355e-05
1.57041622162e-05
1.57040037985e-05
1.57038662191e-05
1.57037421712e-05
1.57036350799e-05
1.57035162042e-05
1.57034103676e-05
1.57032809532e-05
1.57031330794e-05
1.57030344677e-05
1.57029390447e-05
1.57028305371e-05
1.57027267799e-05
1.57026153027e-05
1.57025038663e-05
1.57023639882e-05
1.57022600209e-05
1.57021690134e-05
1.57020866833e-05
1.570200796e-05
1.57019308237e-05
1.57018587775e-05
1.57017889173e-05
1.57017183209e-05
1.57016446928e-05
1.57015714516e-05
1.5701481569e-05
1.57013937443e-05
1.57013171532e-05
1.57012353111e-05
1.5701141916e-05
1.57010532983e-05
1.57009675103e-05
1.57008809596e-05
1.57007993602e-05
1.57007153026e-05
1.57006273267e-05
1.5700528804e-05
1.57004193528e-05
1.57003166216e-05
1.57002155007e-05
1.57001125015e-05
1.56999946976e-05
1.56998451103e-05
1.56996833385e-05
1.56995332497e-05
1.56992839741e-05
1.56991719168e-05
1.56990864583e-05
1.56989989181e-05
1.56988943358e-05
1.56987807945e-05
1.5698669816e-05
1.56985474612e-05
1.56984452484e-05
1.56983575026e-05
1.56982762421e-05
1.56982004235e-05
1.56981287272e-05
1.56980752363e-05
1.56980323708e-05
1.56979839637e-05
1.56979394622e-05
1.56978782354e-05
1.56978027809e-05
1.56977272228e-05
1.56976606727e-05
1.56976017742e-05
1.5697546911e-05
1.5697493551e-05
1.56974484795e-05
1.5697403059e-05
1.56973547231e-05
1.5697303343e-05
1.5697244998e-05
1.56971782336e-05
1.56971035768e-05
1.56970146973e-05
1.56969118923e-05
1.5696816973e-05
1.56967303249e-05
1.56966394673e-05
1.56965474369e-05
1.56964578014e-05
1.56963643879e-05
1.56962672132e-05
1.56961674477e-05
1.56960702364e-05
1.56959766826e-05
1.56958732609e-05
1.56957379215e-05
1.56955567245e-05
1.56953718022e-05
1.56952152064e-05
1.5695043675e-05
1.56948751102e-05
1.56947274535e-05
1.5694531071e-05
1.56943828145e-05
1.56942482592e-05
1.56941140446e-05
1.56939786751e-05
1.56938719727e-05
1.56937036129e-05
1.5693561258e-05
1.56934643931e-05
1.56933673154e-05
1.56932582208e-05
1.56931421147e-05
1.56930243416e-05
1.5692893589e-05
1.56927783899e-05
1.56926845764e-05
1.56926066708e-05
1.56925385434e-05
1.56924728128e-05
1.5692406226e-05
1.56923400921e-05
1.56922655579e-05
1.56921834065e-05
1.56921180343e-05
1.56920627764e-05
1.56920058278e-05
1.56919440601e-05
1.56918771583e-05
1.56917992138e-05
1.56917140794e-05
1.56916453901e-05
1.56915998121e-05
1.56915595082e-05
1.56915366413e-05
1.56914998471e-05
1.56914335174e-05
1.56913348719e-05
1.56912162092e-05
1.56911059585e-05
1.56910674362e-05
1.56910235102e-05
1.56909840903e-05
1.56909225741e-05
1.56908368067e-05
1.56907436262e-05
1.56906405938e-05
1.5690530377e-05
1.56904000639e-05
1.56902862539e-05
1.5690178439e-05
1.5690041111e-05
1.56899149181e-05
1.56897339682e-05
1.56894275733e-05
1.56891491902e-05
1.56890341217e-05
1.5688824118e-05
1.5688642573e-05
1.56884778941e-05
1.56882487534e-05
1.56880726893e-05
1.56879210932e-05
1.56877866772e-05
1.56876799083e-05
1.56875878356e-05
1.56874999401e-05
1.56873892394e-05
1.56872607118e-05
1.56871475345e-05
1.56870511473e-05
1.56869639614e-05
1.56868865787e-05
1.56868032274e-05
1.56867201576e-05
1.56866323895e-05
1.56865412129e-05
1.56864459135e-05
1.56863468887e-05
1.56862504947e-05
1.56861608124e-05
1.56860706726e-05
1.56859696762e-05
1.56858642633e-05
1.56857632193e-05
1.56856636786e-05
1.56855615394e-05
1.56854503363e-05
1.56853274637e-05
1.56852035775e-05
1.56850831094e-05
1.56849668832e-05
1.56848512425e-05
1.56847319968e-05
1.56845993051e-05
1.56844481768e-05
1.56842859516e-05
1.5684140604e-05
1.56839310074e-05
1.56837467197e-05
1.56835733271e-05
1.56833780592e-05
1.56831973612e-05
1.5683045631e-05
1.56828708833e-05
1.56827446255e-05
1.56826424192e-05
1.56825559001e-05
1.56824680279e-05
1.56823808038e-05
1.56822868885e-05
1.56821972948e-05
1.56821165176e-05
1.56820561786e-05
1.56820078548e-05
1.5681982097e-05
1.56819381196e-05
1.56818601617e-05
1.5681733644e-05
1.56816553068e-05
1.56815971327e-05
1.56815471346e-05
1.56814993417e-05
1.56814494315e-05
1.56813982295e-05
1.56813090001e-05
1.56811967355e-05
1.56810612416e-05
1.56809091526e-05
1.56807312145e-05
1.56806263304e-05
1.56803720841e-05
1.56799217456e-05
1.56796154239e-05
1.56794882497e-05
1.56793509607e-05
1.56792466128e-05
1.56791818462e-05
1.56791006503e-05
1.56790345814e-05
1.56789242015e-05
1.56788486812e-05
1.56787771051e-05
1.56787147077e-05
1.56786463089e-05
1.56785839361e-05
1.56784994485e-05
1.56784111057e-05
1.56783111325e-05
1.56782598893e-05
1.56782130477e-05
1.56781634573e-05
1.56781066245e-05
1.5678051427e-05
1.56779653446e-05
1.56778714355e-05
1.5677760233e-05
1.56776398417e-05
1.56775355592e-05
1.56774256381e-05
1.56773099155e-05
1.56771895882e-05
1.5677005158e-05
1.56768613522e-05
1.56767274443e-05
1.5676393229e-05
1.56760266787e-05
1.56758394597e-05
1.56757163407e-05
1.56755543533e-05
1.56753799186e-05
1.56752389757e-05
1.56750881651e-05
1.56749659903e-05
1.56748415579e-05
1.56747332985e-05
1.56746362167e-05
1.56745503668e-05
1.56744565428e-05
1.5674357191e-05
1.56742399924e-05
1.56741270748e-05
1.56740126218e-05
1.5673893398e-05
1.56737736079e-05
1.56736538225e-05
1.56735269506e-05
1.56733932188e-05
1.56732793633e-05
1.56731729076e-05
1.56730399805e-05
1.56729221286e-05
1.56727842266e-05
1.56726662099e-05
1.5672562407e-05
1.56723462048e-05
1.56721543965e-05
1.56719634641e-05
1.5671790199e-05
1.56716392067e-05
1.56714853076e-05
1.56713212581e-05
1.56711794658e-05
1.56710513841e-05
1.56709199578e-05
1.56707400335e-05
1.56705755243e-05
1.56704440486e-05
1.56703128097e-05
1.56701794251e-05
1.56700205405e-05
1.56698656594e-05
1.56697215652e-05
1.56695919823e-05
1.56694564626e-05
1.56693324869e-05
1.56692110745e-05
1.56690850846e-05
1.56689398198e-05
1.56687925276e-05
1.56686510447e-05
1.56685274043e-05
1.56684189065e-05
1.56683164544e-05
1.5668212059e-05
1.56680994692e-05
1.56679691885e-05
1.56678277458e-05
1.56676893182e-05
1.56675625311e-05
1.56674476371e-05
1.56673292435e-05
1.56672001055e-05
1.56670579727e-05
1.56669207471e-05
1.56667377647e-05
1.56665613082e-05
1.56663989816e-05
1.56662628201e-05
1.56661301576e-05
1.56660143795e-05
1.56658547616e-05
1.56656410698e-05
1.56654817557e-05
1.56653275587e-05
1.56651549214e-05
1.5664939437e-05
1.56647379798e-05
1.5664515529e-05
1.56642710461e-05
1.56641283879e-05
1.56639968195e-05
1.5663836696e-05
1.56636540081e-05
1.56635022119e-05
1.56633401036e-05
1.56631561565e-05
1.56630003066e-05
1.56628686541e-05
1.56627457059e-05
1.56626265121e-05
1.56625119912e-05
1.56623903479e-05
1.56622526441e-05
1.56621007197e-05
1.56619613413e-05
1.56618490058e-05
1.56617371473e-05
1.56616479177e-05
1.56615788333e-05
1.56615128336e-05
1.56614335032e-05
1.56613436623e-05
1.56612384697e-05
1.56611294874e-05
1.56610209049e-05
1.5660917224e-05
1.56608211519e-05
1.56607192716e-05
1.56606187918e-05
1.56605096087e-05
1.56603845466e-05
1.56602598777e-05
1.56601191744e-05
1.56599832707e-05
1.5659857255e-05
1.56596510451e-05
1.56594749134e-05
1.5659305349e-05
1.56591342969e-05
1.56589522596e-05
1.56587458743e-05
1.565849275e-05
1.5658247704e-05
1.56580439769e-05
1.56578658616e-05
1.56576937937e-05
1.56574498864e-05
1.56570558092e-05
1.56567159881e-05
1.5656502055e-05
1.56563102948e-05
1.56561130918e-05
1.56559278756e-05
1.56557577091e-05
1.56555765418e-05
1.56554065756e-05
1.56552561269e-05
1.56550640476e-05
1.56549249144e-05
1.56548094044e-05
1.56546779064e-05
1.56545242721e-05
1.56543753435e-05
1.56542248228e-05
1.5654074181e-05
1.56539427512e-05
1.5653806557e-05
1.56537100607e-05
1.56536384286e-05
1.56535861284e-05
1.5653513502e-05
1.56534141103e-05
1.56532768508e-05
1.56531017957e-05
1.56529445341e-05
1.56528196612e-05
1.5652705305e-05
1.56526002698e-05
1.56524192701e-05
1.56522409947e-05