/*--------------------------------*- C++ -*----------------------------------*\
  =========                 |
  \\      /  F ield         | OpenFOAM: The Open Source CFD Toolbox
   \\    /   O peration     | Website:  https://openfoam.org
    \\  /    A nd           | Version:  6
     \\/     M anipulation  |
\*---------------------------------------------------------------------------*/
FoamFile
{
    version     2.0;
    format      ascii;
    class       volScalarField;
    location    "0.0004225";
    object      O2;
}
// * * * * * * * * * * * * * * * * * * * * * * * * * * * * * * * * * * * * * //

dimensions      [0 0 0 0 0 0 0];

internalField   nonuniform List<scalar> 
32000
(
0.00063590929266
0.000635909139328
0.000635908965958
0.000635908876491
0.000635908712407
0.000635908469125
0.000635908331539
0.000635908195864
0.000635907917368
0.000635907590666
0.000635907303635
0.000635907174817
0.000635906995116
0.00063590662858
0.000635906050454
0.000635905366751
0.000635904888263
0.000635904654394
0.00063590453029
0.000635904348386
0.000635904034539
0.000635903533758
0.000635902965586
0.000635902295512
0.000635901834165
0.000635901515042
0.000635901178755
0.000635900822491
0.000635900250353
0.000635899459301
0.000635898662299
0.000635898145816
0.000635897812874
0.000635897334956
0.00063589673873
0.000635895781968
0.000635894689359
0.00063589366078
0.000635892859963
0.000635892345063
0.000635891925239
0.000635891102022
0.000635890171548
0.000635889274832
0.000635888610185
0.00063588818558
0.000635887761216
0.000635887196978
0.000635886334885
0.000635885191653
0.000635883891891
0.000635882119064
0.000635880150695
0.000635878512895
0.000635876675728
0.000635875632236
0.000635874784823
0.000635874240616
0.000635873672914
0.000635872710535
0.000635871685626
0.000635870504533
0.000635869420571
0.000635867950422
0.000635866994574
0.000635865516755
0.000635864073253
0.000635862965991
0.000635861108742
0.00063585947718
0.000635858106893
0.000635856171197
0.000635854755189
0.000635853770538
0.000635853087277
0.000635852168147
0.000635851469071
0.000635850174667
0.000635848768309
0.000635846987363
0.000635845168596
0.000635842489185
0.000635840526412
0.000635839274814
0.000635838392697
0.000635837449111
0.000635836354051
0.000635835290945
0.000635833094131
0.000635831571303
0.000635829228411
0.000635826711503
0.000635822789447
0.000635820308514
0.000635818128322
0.000635816147141
0.000635814812874
0.000635812900872
0.000635811718183
0.000635810866545
0.000635810298698
0.000635809278766
0.000635807524746
0.000635805695482
0.000635804063695
0.00063580235957
0.000635799378961
0.000635795347198
0.000635791803105
0.00063578859092
0.000635784342953
0.000635782087638
0.000635778749264
0.000635776530005
0.000635775009932
0.000635772936798
0.00063577185747
0.000635770247943
0.000635769012586
0.000635767566388
0.000635765943815
0.000635764484254
0.000635762501522
0.000635760383872
0.000635758652739
0.000635755400773
0.000635752776526
0.000635748307557
0.000635743715582
0.000635741476934
0.000635739374666
0.000635737939547
0.00063573663533
0.000635735250343
0.000635732906938
0.000635729491602
0.000635727091123
0.000635724505274
0.000635720161323
0.000635717641289
0.00063571424101
0.000635711625503
0.000635706650669
0.000635704559808
0.000635701242121
0.000635698578429
0.00063569697684
0.000635693901292
0.000635691844564
0.000635690291968
0.000635688229485
0.000635685561503
0.000635683660162
0.000635681473706
0.000635679715812
0.00063567686101
0.000635674995593
0.000635671945663
0.000635670170731
0.000635667037082
0.000635662822477
0.000635660144043
0.000635656980389
0.000635650234372
0.000635645072438
0.000635639389305
0.000635633575697
0.000635628869852
0.000635623504145
0.000635620533391
0.000635616899998
0.000635613117932
0.000635611616943
0.000635609006531
0.00063560642129
0.000635605069384
0.000635602826293
0.000635601423686
0.000635600363532
0.000635598174644
0.000635595185801
0.000635591495048
0.000635588620387
0.000635584776473
0.000635581447176
0.000635577074209
0.000635573184417
0.000635567557457
0.000635562988214
0.00063555996853
0.000635554536184
0.000635551880918
0.000635547855857
0.000635544606623
0.000635542617622
0.000635539122575
0.000635536412236
0.000635532959022
0.000635531332466
0.000635528247539
0.000635523452462
0.000635521225009
0.000635518319805
0.00063551311976
0.000635507301461
0.0006355014815
0.00063549426971
0.000635488675218
0.000635479789633
0.000635474172999
0.000635467815347
0.000635463462841
0.000635458452104
0.000635453604398
0.000635450866592
0.000635448919226
0.000635445882597
0.000635441999208
0.000635440144735
0.000635437263205
0.00063543541078
0.000635432543831
0.000635430998008
0.000635429021543
0.000635425616826
0.000635421088813
0.000635418897017
0.000635416746785
0.000635411072772
0.000635406229775
0.000635403940357
0.000635398049245
0.000635388956998
0.000635385098407
0.000635379229568
0.000635371530575
0.000635366511284
0.000635362490644
0.000635358729293
0.000635352400657
0.000635349268398
0.000635345277177
0.000635342589485
0.000635340155803
0.000635335305085
0.000635329960556
0.000635327893661
0.000635323448369
0.000635318544183
0.00063531577011
0.000635309522891
0.000635304535981
0.000635301185
0.000635292794765
0.000635287547222
0.000635283274267
0.00063527502547
0.000635266956362
0.000635261128199
0.000635252691438
0.000635244687208
0.000635241320653
0.000635236112141
0.000635228890528
0.000635226031051
0.000635222394835
0.000635217700306
0.000635214492131
0.000635210756433
0.000635205959444
0.000635203802435
0.000635201720317
0.000635196923358
0.000635189662279
0.000635185929655
0.000635183929753
0.000635179208281
0.000635171192174
0.000635165777952
0.000635163409172
0.00063515707686
0.000635147108877
0.0006351431934
0.000635139252075
0.000635132819833
0.000635124987849
0.000635118353628
0.000635113766789
0.000635108812913
0.00063510242141
0.000635097362745
0.000635094103262
0.000635090200098
0.000635083600723
0.000635077064503
0.000635071017502
0.000635068614912
0.000635063300687
0.000635055141935
0.00063505156574
0.0006350441968
0.00063503955397
0.000635035196405
0.000635026465027
0.000635018493084
0.000635014539537
0.000635006317585
0.000634998601825
0.000634993061278
0.000634987392704
0.00063498404245
0.000634979484009
0.000634971779887
0.000634966439633
0.000634963197529
0.000634956678022
0.000634953764071
0.000634949820001
0.000634941550786
0.000634934458859
0.000634932060128
0.000634928816927
0.000634921222686
0.000634911455522
0.000634907747656
0.000634904280451
0.00063489766796
0.000634888439236
0.00063488116545
0.000634877103161
0.000634871406734
0.000634863091447
0.00063485392525
0.000634844875954
0.000634838798182
0.000634834691427
0.000634829736784
0.000634819754169
0.000634810176988
0.00063480190544
0.000634792065151
0.000634785686253
0.000634782058059
0.000634777909514
0.00063476903436
0.00063476069954
0.000634756359784
0.000634751513573
0.000634743776008
0.000634737525792
0.000634735137792
0.000634730595714
0.000634722526666
0.000634717153769
0.000634714776755
0.000634710462165
0.00063470369351
0.000634697426183
0.00063469427611
0.000634689400574
0.000634680873548
0.000634675499984
0.000634669757901
0.000634663020997
0.000634659201773
0.000634652226026
0.00063464242
0.000634635166332
0.000634629826807
0.00063462238164
0.000634615965511
0.000634609665046
0.000634604830012
0.000634598638674
0.000634590447695
0.000634582952769
0.000634575926395
0.000634570341684
0.000634565795379
0.000634559556478
0.00063454955987
0.000634538230224
0.000634529812778
0.000634526010849
0.00063452197206
0.000634512453864
0.000634499028762
0.000634489297517
0.000634483888503
0.000634478317568
0.0006344682913
0.000634459730952
0.000634452709763
0.000634444218857
0.000634432169803
0.000634423408536
0.000634415905225
0.000634408530532
0.000634399852831
0.000634391629941
0.000634384830579
0.000634381837179
0.000634374826103
0.000634363449761
0.00063435611593
0.000634353075409
0.000634347430507
0.00063433713503
0.000634327534385
0.000634318557073
0.00063431061396
0.000634305382255
0.00063430153427
0.000634296574642
0.00063428746357
0.00063427580044
0.000634267034223
0.000634262410507
0.00063425877898
0.000634250901137
0.000634242451551
0.00063423619947
0.000634232717719
0.000634228431127
0.000634224889311
0.000634217703621
0.000634207227982
0.00063419991167
0.0006341974387
0.000634194267175
0.000634187988575
0.00063417880396
0.000634169545805
0.000634160607722
0.00063415290601
0.000634144755089
0.000634133849841
0.000634124128334
0.000634116708415
0.000634098442607
0.00063408140335
0.000634075817138
0.000634067936526
0.000634056973988
0.000634048052788
0.000634044268542
0.000634039701567
0.000634031148472
0.000634020746941
0.000634012371224
0.000634005836733
0.000634001160704
0.000633997758883
0.000633993761457
0.000633988953239
0.000633982253248
0.000633974061712
0.000633964719862
0.000633956459611
0.000633947579697
0.00063394055381
0.00063393244486
0.000633925515573
0.000633915354579
0.000633903334469
0.000633894795857
0.000633883011236
0.000633869087329
0.00063386349542
0.000633855328392
0.000633844254561
0.000633833184262
0.000633824472047
0.000633817326539
0.000633811735932
0.000633806174792
0.000633797194453
0.000633784155362
0.000633774173867
0.000633765161587
0.000633759379436
0.000633754849985
0.000633742420831
0.000633732551687
0.000633727522524
0.000633718973231
0.000633710344364
0.000633700245453
0.000633687193388
0.000633676805372
0.00063366954495
0.000633655490713
0.000633630535284
0.000633620815045
0.000633614498539
0.00063360683984
0.000633601624963
0.000633593671587
0.000633583172098
0.000633572811696
0.000633563723183
0.000633557931604
0.000633554516566
0.000633548406475
0.000633541944095
0.000633538857167
0.000633534162749
0.000633528747688
0.000633521085266
0.000633512455019
0.000633503042244
0.000633497098881
0.00063349336025
0.000633486922016
0.000633479483776
0.000633469537719
0.000633456735168
0.000633447421399
0.000633442249362
0.000633437527307
0.00063342732232
0.000633413195137
0.000633403611204
0.000633395635713
0.000633375868221
0.000633362736278
0.000633356405532
0.000633345738397
0.000633332916294
0.000633323848376
0.000633315056706
0.000633292887129
0.000633271593878
0.000633265205592
0.0006332575585
0.000633251816592
0.00063324607744
0.000633233611499
0.000633222823216
0.000633216175118
0.000633212679015
0.000633205506808
0.00063318975275
0.000633180271431
0.000633171926415
0.000633163462186
0.00063315319574
0.000633140462148
0.000633130276684
0.000633120765401
0.000633111778139
0.000633107458026
0.00063310242839
0.000633089307957
0.00063307646448
0.000633066849218
0.000633062558207
0.000633057634735
0.000633042919376
0.000633030334703
0.000633022310924
0.000633011182829
0.000633001390719
0.000632991210751
0.000632981522166
0.000632970258732
0.000632958339346
0.00063294900058
0.000632938043954
0.000632928920732
0.000632907426288
0.000632897343928
0.000632888793543
0.000632879919225
0.000632869270234
0.000632861909613
0.000632857073972
0.000632849077349
0.00063283482482
0.000632823582983
0.000632815559513
0.000632808474918
0.000632801006899
0.00063279300074
0.000632777514315
0.000632770523272
0.000632758564506
0.000632750721299
0.000632742671043
0.000632732793323
0.000632720571365
0.000632707224668
0.000632699838394
0.000632687754
0.000632676570508
0.000632665891258
0.000632656353002
0.000632651141498
0.000632638200237
0.000632625249026
0.000632617065934
0.000632604189564
0.000632597095164
0.000632588035916
0.000632578102062
0.000632569773104
0.000632554110294
0.000632531372437
0.00063251298911
0.000632499476736
0.000632479542794
0.000632471521622
0.000632465579739
0.000632455942213
0.000632446088238
0.000632434631535
0.000632424856043
0.0006324176946
0.000632407742381
0.00063240094743
0.00063239381915
0.000632388974122
0.000632379185661
0.000632367601747
0.000632354694453
0.000632345640951
0.000632336109487
0.000632327699391
0.000632318386735
0.000632305495644
0.00063229347603
0.00063228252169
0.000632272808213
0.000632266462703
0.000632255531981
0.000632239587933
0.000632223724851
0.000632208341043
0.000632194909695
0.000632180019843
0.000632159451169
0.00063213614373
0.000632127379401
0.00063212173813
0.00063211286666
0.000632104308512
0.000632097073194
0.000632091196898
0.000632080964594
0.000632067802717
0.000632058123465
0.000632047222781
0.000632033261947
0.000632020730753
0.000632010372948
0.000632004152696
0.000631997028077
0.000631989928385
0.000631981981705
0.000631969351615
0.000631955883539
0.000631943714477
0.000631936639767
0.00063192697059
0.000631905622338
0.000631876859292
0.000631852531269
0.0006318417449
0.000631834170234
0.000631825127648
0.000631818434918
0.00063181218854
0.000631801806374
0.000631787416599
0.00063177898611
0.000631769532879
0.000631758890145
0.000631746832205
0.000631734919552
0.000631721829752
0.000631711720039
0.000631699724359
0.000631688031368
0.000631676398909
0.000631664770581
0.000631654032374
0.000631648265453
0.000631637237672
0.000631614934521
0.000631594420138
0.000631581225104
0.000631571050799
0.000631563268267
0.000631551158686
0.000631528989679
0.00063151440451
0.00063150817191
0.000631499428901
0.000631493624698
0.000631479848017
0.000631467803079
0.000631461577189
0.000631450406562
0.00063144318176
0.000631434762886
0.00063142556867
0.000631418554692
0.000631407828572
0.000631393290033
0.000631384159326
0.000631372540738
0.000631361874234
0.00063135287102
0.00063134282511
0.000631330398675
0.000631318185819
0.000631306515013
0.000631297550373
0.000631291044123
0.000631277470716
0.000631256412642
0.000631233582033
0.000631211344451
0.000631189907701
0.000631169306406
0.000631147214757
0.000631133868487
0.000631128205844
0.000631120960473
0.000631112277272
0.000631090934046
0.000631077231577
0.000631071502042
0.000631063341207
0.000631051238947
0.000631037501703
0.000631025484083
0.000631015689114
0.000631008657133
0.000630989924994
0.000630965135993
0.000630956290398
0.000630948630076
0.000630935430586
0.000630927348185
0.000630919803947
0.000630903589168
0.000630882777369
0.000630863535866
0.000630849079743
0.000630843226247
0.000630831517046
0.000630823650134
0.000630814578971
0.000630798745035
0.000630781624068
0.000630765890151
0.000630751193235
0.000630736563745
0.000630722465824
0.000630708854856
0.000630694272429
0.000630676707633
0.000630656769565
0.000630635940914
0.000630612286152
0.000630600361938
0.00063059659958
0.000630590031306
0.000630579463034
0.000630563948017
0.000630552568225
0.000630541675028
0.000630531651563
0.000630527613604
0.000630519611464
0.000630506980148
0.000630492154986
0.000630480269581
0.000630473789031
0.000630461103931
0.000630438532079
0.000630417268751
0.000630410882832
0.000630402642657
0.000630396284782
0.000630390486671
0.000630380085559
0.000630365674937
0.000630353402504
0.000630344411117
0.000630327998967
0.000630320555113
0.000630308537895
0.000630295366861
0.000630289163542
0.000630279984854
0.000630261772926
0.000630237080071
0.000630214045739
0.000630197054773
0.00063018189553
0.00063016705932
0.000630152019338
0.000630135382145
0.000630121856792
0.000630109104922
0.000630097270888
0.000630084947849
0.000630071699858
0.000630056433399
0.000630039442302
0.000630022175221
0.000630005927513
0.000629990030681
0.000629973969635
0.000629957164815
0.000629940783085
0.000629924870991
0.000629905417029
0.000629887181501
0.00062987133575
0.000629858197732
0.000629845622211
0.00062983362852
0.000629818666185
0.000629796766759
0.000629783581383
0.000629778476027
0.000629769186544
0.000629753896285
0.00062973920993
0.000629730195049
0.000629722721141
0.000629711339493
0.000629700526012
0.000629690408171
0.000629676470243
0.000629665389781
0.000629652882338
0.000629641594967
0.000629635239816
0.000629623581075
0.000629604319657
0.000629584879253
0.000629568400175
0.000629550407936
0.000629534548078
0.00062951526854
0.000629494820413
0.000629475717308
0.000629460315761
0.000629446354898
0.000629434336657
0.00062942078986
0.000629406357473
0.000629391557167
0.000629374214181
0.000629354699633
0.000629336050004
0.000629322221845
0.000629310654553
0.00062929800528
0.00062928377062
0.000629276196256
0.000629267835225
0.000629254126932
0.000629234678331
0.000629211143222
0.000629188702034
0.000629171423914
0.000629158471974
0.00062914777893
0.000629137885662
0.000629128711628
0.000629116654226
0.000629101390716
0.000629084259081
0.000629064276689
0.00062903999633
0.000629019972461
0.000629014521798
0.000629007388505
0.000628998485227
0.00062898638271
0.000628972505549
0.000628960069208
0.000628950638113
0.000628944483785
0.000628931454077
0.000628909791107
0.000628887917993
0.000628869674808
0.000628852404564
0.000628836231085
0.000628821545226
0.000628806340175
0.000628788093605
0.00062876624585
0.000628744341092
0.000628724730824
0.00062870657033
0.000628688681908
0.000628668757721
0.000628652545411
0.000628637886711
0.000628631683936
0.000628622612224
0.000628609979341
0.000628597010044
0.000628586037959
0.000628578662837
0.000628565713162
0.000628546350739
0.000628526971725
0.00062850512891
0.000628491125553
0.00062848535136
0.000628475116672
0.000628461939562
0.000628448587418
0.000628440604699
0.000628432719557
0.000628416910715
0.000628394903498
0.000628372120441
0.000628349379449
0.000628333013174
0.000628322313458
0.00062827988927
0.000628237852198
0.00062822107965
0.000628202030556
0.00062818263821
0.000628162558369
0.000628142929914
0.00062812421893
0.000628105384343
0.000628088802632
0.00062807294339
0.000628059855693
0.000628043404647
0.000628020179968
0.000628010699209
0.00062800506046
0.000627997726595
0.000627987727293
0.000627977278276
0.000627967987133
0.00062795923947
0.000627949620649
0.000627937319388
0.000627921532514
0.000627907861258
0.000627896951323
0.000627886487053
0.000627875862351
0.00062786471936
0.000627855101301
0.000627846874248
0.000627837129403
0.00062782563497
0.000627812690233
0.000627798875706
0.000627785047516
0.000627772611912
0.00062776491942
0.000627755947982
0.000627736915561
0.000627715117137
0.000627702003057
0.000627675594197
0.000627632743398
0.00062757883196
0.000627529693393
0.000627515541368
0.000627501078084
0.00062748504129
0.000627464079064
0.000627449569876
0.000627444592227
0.000627437196401
0.000627424445883
0.000627411135081
0.000627395328686
0.000627383721375
0.000627369952343
0.000627356005826
0.00062734851708
0.000627339343013
0.000627328365472
0.000627319158411
0.00062730838797
0.000627291756025
0.00062727229273
0.000627260458752
0.000627244070996
0.000627201019804
0.000627138320649
0.0006271180714
0.000627101583249
0.000627084649207
0.00062707722425
0.000627069744775
0.000627065117431
0.000627055324227
0.000627039252825
0.000627023467429
0.000627017738594
0.000627008982384
0.000626994444131
0.000626980138955
0.000626974947806
0.000626970121315
0.00062696239758
0.000626949442278
0.0006269322838
0.000626915819859
0.000626901808777
0.000626891684243
0.000626884025847
0.000626868488149
0.000626853635609
0.00062683297894
0.000626798894083
0.000626756308163
0.000626714580958
0.000626678001661
0.000626645055024
0.000626616165111
0.000626573554204
0.00062655443295
0.000626539929886
0.000626524932616
0.00062650597065
0.000626489255781
0.00062648263371
0.000626472911294
0.000626460432534
0.000626452341521
0.000626441320921
0.000626426764513
0.00062641424473
0.000626401750122
0.000626389089154
0.000626377090989
0.00062636531808
0.000626353604941
0.000626341416718
0.00062632852651
0.000626314874103
0.000626300830436
0.000626286795453
0.000626272818808
0.000626259224953
0.000626246928613
0.000626237433024
0.000626228025184
0.000626212626481
0.000626194530743
0.000626164587139
0.000626128989088
0.000626097719259
0.000626072705285
0.000626048140061
0.000626023867073
0.000626001822816
0.000625981280322
0.000625946689459
0.000625925796743
0.000625906797872
0.000625886694746
0.000625878346623
0.000625869438624
0.000625858524384
0.00062584710988
0.000625835832351
0.000625823113951
0.000625808106541
0.000625794669266
0.000625782639728
0.000625770286766
0.000625757332333
0.000625744081064
0.000625730998204
0.000625718074847
0.000625705668552
0.000625694126274
0.000625684462081
0.000625667525408
0.0006256385678
0.000625601622905
0.000625563031092
0.000625527949979
0.000625496243141
0.000625467473421
0.000625443241299
0.00062542195914
0.000625404988023
0.00062538954525
0.00062537595966
0.000625361553447
0.00062533182689
0.000625293353912
0.000625281201655
0.000625272074451
0.000625262743695
0.000625251118269
0.000625237421526
0.000625222674084
0.000625208436651
0.000625196214128
0.000625185064812
0.000625172989878
0.00062515781147
0.000625133839587
0.000625118431975
0.00062510409946
0.000625090798647
0.00062507772852
0.000625067027844
0.000625054834052
0.000625043042571
0.000625029341907
0.000625014461725
0.000624999797804
0.000624985101768
0.000624969837736
0.000624957712253
0.000624939868205
0.000624909283577
0.000624867732427
0.0006248410675
0.000624807148168
0.000624791084599
0.000624776316789
0.000624762144792
0.000624750167103
0.000624739442641
0.000624728400072
0.000624714438465
0.000624699028528
0.000624683854926
0.000624669238828
0.000624655134931
0.000624641856353
0.000624623781589
0.00062459811853
0.000624561703932
0.00062453304992
0.000624510301648
0.000624487343162
0.000624465684631
0.000624442545448
0.000624417787811
0.00062439357165
0.00062436984271
0.000624344997352
0.000624317708924
0.000624286975416
0.000624253205877
0.000624219946924
0.00062419023575
0.000624163094535
0.000624120659101
0.000624100144671
0.000624083441817
0.000624073852318
0.000624063263092
0.00062404903824
0.000624032538821
0.000624018509096
0.000624006825465
0.00062399656283
0.000623985509969
0.00062397085787
0.000623958199738
0.000623933936999
0.000623904661103
0.000623885545266
0.000623866987941
0.000623856944476
0.000623845420576
0.000623823367592
0.000623796155222
0.00062378447659
0.000623774162609
0.000623760916139
0.000623740164825
0.000623712689474
0.000623700151921
0.000623690936594
0.000623680641084
0.000623668165989
0.000623653998941
0.000623640415205
0.000623628076808
0.000623614397375
0.000623599016774
0.000623585061511
0.000623572602088
0.00062355944167
0.000623545663299
0.000623531951872
0.000623519835484
0.000623507507068
0.000623488183387
0.000623467959338
0.00062344899236
0.000623411763845
0.000623368217369
0.000623332611243
0.000623301771274
0.000623274023754
0.000623250094473
0.000623223512269
0.000623199834399
0.000623170825494
0.000623137653196
0.000623115495102
0.000623094002532
0.000623069559434
0.000623046034938
0.000623020693203
0.000622995347379
0.000622963252361
0.000622939336903
0.000622918349709
0.000622899308957
0.00062288104343
0.000622863065501
0.000622846227753
0.000622829876462
0.000622813341473
0.000622796114499
0.000622779072328
0.000622758262455
0.000622737937467
0.000622720215673
0.000622701351344
0.000622679935945
0.000622659671951
0.000622640129213
0.000622620497878
0.000622602065486
0.000622583168696
0.000622563461885
0.00062254145635
0.000622517071794
0.000622494262132
0.000622471890649
0.000622449140613
0.000622423172941
0.000622390148141
0.000622354418504
0.000622321250451
0.000622265832507
0.000622240920089
0.000622221922263
0.000622202402011
0.000622179028529
0.000622153582069
0.000622128498526
0.000622100702596
0.000622077455979
0.000622057486217
0.000622038938899
0.000622021554657
0.000622005035054
0.000621992670085
0.000621982740059
0.000621971482935
0.000621961113064
0.000621946794418
0.000621929090464
0.000621911330019
0.000621895677173
0.000621881797529
0.000621868873549
0.000621856287118
0.000621845712458
0.000621835091565
0.00062182379995
0.000621811857541
0.000621798345584
0.000621782936662
0.000621765851695
0.00062174568191
0.000621722429874
0.000621701013538
0.000621681509575
0.000621661120618
0.000621640544694
0.000621620585616
0.000621599914403
0.000621578548087
0.000621556725374
0.000621535558349
0.000621515258737
0.000621492842232
0.0006214635135
0.000621424285532
0.000621384289229
0.00062135042545
0.000621313289098
0.000621276773326
0.000621244791099
0.000621202163113
0.00062117000999
0.000621140851435
0.000621111700314
0.000621082280853
0.000621059146853
0.000621022240298
0.000620991037302
0.000620969886916
0.000620948654884
0.000620924669601
0.000620899074622
0.000620872929491
0.000620843775303
0.000620818100341
0.000620797235179
0.000620779953465
0.000620764844403
0.000620750215271
0.000620735374362
0.000620720619496
0.00062070394308
0.000620685513241
0.000620670889462
0.000620658573385
0.000620645910329
0.000620632209995
0.000620617378619
0.000620600104405
0.000620581285699
0.000620566205728
0.000620556344492
0.000620547759322
0.000620542960399
0.000620535138027
0.000620520817455
0.000620499395277
0.000620473604147
0.000620449775689
0.000620441612199
0.000620432379633
0.000620424111678
0.000620411048336
0.000620392737037
0.000620372859995
0.000620350948583
0.000620327583097
0.000620300022299
0.000620276094444
0.000620253534892
0.000620224734032
0.00062019824791
0.000620160155081
0.000620095542903
0.000620036870321
0.000620012752093
0.000619968661669
0.000619930546672
0.000619896036374
0.000619847752955
0.000619810684398
0.000619778845642
0.000619750687434
0.000619728469491
0.000619709417978
0.000619691154755
0.000619667904875
0.00061964077961
0.000619616923908
0.000619596666897
0.000619578378146
0.000619562152478
0.000619544583971
0.000619527053798
0.000619508520619
0.000619489252542
0.000619469100876
0.000619448177907
0.000619427871821
0.000619409063199
0.000619390210206
0.000619369117821
0.000619347178
0.000619326259199
0.000619305742126
0.000619284740628
0.00061926187118
0.000619236599669
0.000619211168765
0.000619186490373
0.000619162718
0.000619139063336
0.000619114599808
0.000619087231162
0.000619055917516
0.000619022169406
0.00061899181475
0.000618947865695
0.000618909159531
0.000618872763183
0.00061883169954
0.000618793782686
0.000618761961531
0.00061872542512
0.000618699237264
0.000618678240148
0.000618660620838
0.000618642746839
0.000618625026884
0.000618605981521
0.000618587876013
0.000618571743134
0.000618560016065
0.000618550828033
0.000618546135325
0.000618537716514
0.000618522283771
0.000618497018766
0.000618481567667
0.000618470288083
0.000618460712941
0.00061845162897
0.000618442097549
0.000618432244463
0.000618414504586
0.000618391950017
0.000618364439637
0.00061833326476
0.000618296670561
0.000618275095329
0.000618222185021
0.000618128264469
0.000618064681911
0.000618038641146
0.000618010829388
0.000617989923642
0.000617977246971
0.000617961345525
0.000617948398537
0.00061792663349
0.0006179119807
0.000617898277468
0.000617886522338
0.000617873599879
0.000617861828257
0.000617845769656
0.000617828901657
0.000617809953713
0.000617800468883
0.000617791872041
0.000617782896295
0.00061777259387
0.000617762485658
0.000617746153038
0.000617728167991
0.000617706675284
0.000617683291779
0.000617663100435
0.000617641876916
0.000617619367831
0.000617595603141
0.000617558835437
0.000617530160939
0.000617503272632
0.000617435396377
0.000617361057638
0.000617323461248
0.000617298955285
0.000617266655018
0.000617232052544
0.000617204316774
0.000617174812794
0.000617151034729
0.000617127007218
0.000617106304878
0.000617087934351
0.000617071896876
0.000617054247762
0.000617035436715
0.000617013114098
0.000616991668646
0.000616970022919
0.000616947507728
0.000616924866909
0.000616902153716
0.000616878086369
0.000616852710879
0.000616831272637
0.000616811198045
0.00061678585746
0.000616763558513
0.000616737401645
0.000616715088159
0.000616695198041
0.000616653187731
0.000616615840561
0.000616578681636
0.000616545032356
0.000616515820117
0.000616486131222
0.000616454757274
0.000616427942523
0.000616403828638
0.000616378854493
0.00061634431905
0.000616312794251
0.000616287873
0.000616263078401
0.000616237751688
0.000616207369257
0.000616177747424
0.000616150343613
0.000616125883744
0.000616100322077
0.000616076995448
0.000616054160026
0.000616030451391
0.00061600307802
0.000615975363869
0.000615948886004
0.000615926046565
0.000615906278283
0.0006158878419
0.00061586904081
0.000615848501106
0.000615824538182
0.000615798546992
0.000615773197057
0.000615750066471
0.000615729205964
0.000615707758366
0.000615684271322
0.000615658179333
0.000615632789066
0.000615598702028
0.000615565881243
0.00061553585383
0.000615510978748
0.000615486979558
0.000615466144305
0.000615436608916
0.000615396609387
0.000615366700408
0.000615337917189
0.000615305525301
0.000615264925319
0.000615226920385
0.000615184775476
0.000615138396516
0.000615111658252
0.000615087115261
0.000615057246999
0.000615023373072
0.000614995380431
0.000614965431946
0.000614931480602
0.000614902959933
0.000614879194936
0.000614857278564
0.000614836199718
0.000614816015844
0.000614794586127
0.000614770302326
0.000614743542728
0.000614719240106
0.000614700046509
0.000614681425806
0.000614666913304
0.000614656051852
0.000614645604156
0.000614632707166
0.000614617897068
0.00061460045406
0.000614582388147
0.000614564412831
0.000614547274442
0.00061453148196
0.000614514705259
0.000614498075073
0.000614479645303
0.000614458198024
0.000614436919952
0.000614412483476
0.000614389163469
0.000614367353052
0.000614330407175
0.000614298738718
0.000614268184602
0.00061423727143
0.00061420421253
0.000614166475929
0.000614119921871
0.000614074894918
0.000614037604699
0.000614004983451
0.000613973197465
0.000613927522972
0.000613853380585
0.000613789752393
0.000613750296829
0.000613715337604
0.00061367958857
0.000613646159702
0.000613615739513
0.000613583486553
0.000613553476307
0.000613527169371
0.000613493980344
0.000613470451511
0.000613451172459
0.000613429168035
0.00061340349985
0.00061337888461
0.000613354271484
0.000613329964394
0.000613309059756
0.000613287916588
0.00061327346744
0.000613263197618
0.000613255997798
0.000613245479484
0.000613230241476
0.000613208276544
0.000613179812742
0.000613154524976
0.000613134485577
0.000613116625512
0.000613100079263
0.000613069009706
0.000613037997685
0.000613009969347
0.000612981029621
0.000612949174799