/*--------------------------------*- C++ -*----------------------------------*\
  =========                 |
  \\      /  F ield         | OpenFOAM: The Open Source CFD Toolbox
   \\    /   O peration     | Website:  https://openfoam.org
    \\  /    A nd           | Version:  6
     \\/     M anipulation  |
\*---------------------------------------------------------------------------*/
FoamFile
{
    version     2.0;
    format      ascii;
    class       volScalarField;
    location    "0.0004225";
    object      O3;
}
// * * * * * * * * * * * * * * * * * * * * * * * * * * * * * * * * * * * * * //

dimensions      [0 0 0 0 0 0 0];

internalField   nonuniform List<scalar> 
32000
(
6.5342472385e-11
6.53424580557e-11
6.53424374324e-11
6.53424127661e-11
6.53423776505e-11
6.53423336769e-11
6.53422853483e-11
6.53422304757e-11
6.53421633333e-11
6.53420875234e-11
6.53420059585e-11
6.53419229117e-11
6.53418295495e-11
6.5341723184e-11
6.53416001077e-11
6.53414695992e-11
6.53413349366e-11
6.53412057513e-11
6.53410739809e-11
6.53409289991e-11
6.53407709002e-11
6.53406049164e-11
6.53404256141e-11
6.53402390013e-11
6.53400506891e-11
6.53398605383e-11
6.53396623031e-11
6.53394574965e-11
6.53392367105e-11
6.53390061412e-11
6.53387590134e-11
6.53385209968e-11
6.53382821605e-11
6.53380256355e-11
6.53377630575e-11
6.53374890162e-11
6.53371851063e-11
6.53368845429e-11
6.53365805875e-11
6.53363000352e-11
6.53359836054e-11
6.53356564995e-11
6.53353298321e-11
6.53349897411e-11
6.53346354277e-11
6.5334304049e-11
6.53339564719e-11
6.53336001228e-11
6.53332292245e-11
6.53328132132e-11
6.53324075927e-11
6.53319813679e-11
6.53315116716e-11
6.53310882198e-11
6.5330607989e-11
6.53301883284e-11
6.53297183071e-11
6.53293066531e-11
6.53288621744e-11
6.53283626479e-11
6.53279004934e-11
6.53274229359e-11
6.53269266276e-11
6.53263949927e-11
6.53259138607e-11
6.53253629777e-11
6.53248082342e-11
6.5324317643e-11
6.53236974488e-11
6.53231686425e-11
6.53226274857e-11
6.53219956508e-11
6.5321402075e-11
6.53208645389e-11
6.53203310729e-11
6.53196691686e-11
6.53191231169e-11
6.53184929195e-11
6.53179016368e-11
6.53172326893e-11
6.5316641534e-11
6.53158963682e-11
6.53152059331e-11
6.53145550211e-11
6.5313948888e-11
6.53132778549e-11
6.53126048e-11
6.53119648235e-11
6.53111756319e-11
6.53105342102e-11
6.53097387735e-11
6.53090355278e-11
6.53081655809e-11
6.53074185995e-11
6.53066617994e-11
6.53059152947e-11
6.53052412208e-11
6.53043564421e-11
6.53035717507e-11
6.53028283812e-11
6.53021800969e-11
6.53013682969e-11
6.53005484688e-11
6.52996423692e-11
6.52988334119e-11
6.5298105658e-11
6.52971906259e-11
6.52961939647e-11
6.52953404283e-11
6.52944832059e-11
6.52934151362e-11
6.52926150062e-11
6.52915761677e-11
6.52907146818e-11
6.52899286616e-11
6.52888705607e-11
6.5288128909e-11
6.5287070861e-11
6.5286175731e-11
6.52853307249e-11
6.52843132065e-11
6.52834764129e-11
6.52824245991e-11
6.52814128073e-11
6.52805840496e-11
6.52794549021e-11
6.52785350515e-11
6.52774181299e-11
6.52761944527e-11
6.52753333288e-11
6.52742389704e-11
6.52732938895e-11
6.5272233792e-11
6.52713265812e-11
6.52701547133e-11
6.52689612391e-11
6.52680285644e-11
6.52670612011e-11
6.52656262877e-11
6.52646891852e-11
6.52634830416e-11
6.52625535603e-11
6.52610808091e-11
6.52601852582e-11
6.52589537973e-11
6.52577230583e-11
6.52568222133e-11
6.52553607326e-11
6.52542774809e-11
6.52533424264e-11
6.5252195452e-11
6.52507858388e-11
6.52496793304e-11
6.52484597878e-11
6.52473561825e-11
6.52460703897e-11
6.52450601368e-11
6.52435797738e-11
6.5242617748e-11
6.52412578493e-11
6.52397156186e-11
6.52386063058e-11
6.52374983687e-11
6.52358879968e-11
6.52345591585e-11
6.52332307041e-11
6.52317711174e-11
6.52304919581e-11
6.52288945106e-11
6.52277737216e-11
6.52263364899e-11
6.52246977276e-11
6.5223768879e-11
6.52223802244e-11
6.5220834914e-11
6.52197537215e-11
6.52181484521e-11
6.52167650202e-11
6.52157284052e-11
6.52143390725e-11
6.52127386985e-11
6.52112061775e-11
6.52099153298e-11
6.52085320022e-11
6.52071144254e-11
6.52054614221e-11
6.52040914452e-11
6.52023266372e-11
6.52007644196e-11
6.51996114639e-11
6.51976900764e-11
6.51965131739e-11
6.51948616104e-11
6.51932173815e-11
6.51920471303e-11
6.51903104622e-11
6.51887494734e-11
6.5186938289e-11
6.51858360125e-11
6.51843071214e-11
6.51822301682e-11
6.51810226603e-11
6.51796370288e-11
6.51778390115e-11
6.51759935439e-11
6.51742857244e-11
6.51723725528e-11
6.51708134035e-11
6.51687273177e-11
6.51671868881e-11
6.51654117623e-11
6.516393653e-11
6.51621566737e-11
6.51601302001e-11
6.51586292607e-11
6.51573068455e-11
6.51555924155e-11
6.51533602074e-11
6.51519314384e-11
6.51500250956e-11
6.51486182224e-11
6.51465738057e-11
6.51452727392e-11
6.5143685431e-11
6.51417374966e-11
6.51393906206e-11
6.51378770679e-11
6.51365639844e-11
6.51343546751e-11
6.51322390293e-11
6.51309630786e-11
6.5128998763e-11
6.51263761071e-11
6.51249547365e-11
6.51231111535e-11
6.51206895202e-11
6.51188487675e-11
6.51171613143e-11
6.51155462733e-11
6.51129397383e-11
6.51113053068e-11
6.51092447293e-11
6.51075869989e-11
6.51060056134e-11
6.51037276294e-11
6.51011038074e-11
6.50997578079e-11
6.50976995386e-11
6.50953622073e-11
6.50939287528e-11
6.50915189489e-11
6.50893009199e-11
6.50877986055e-11
6.50850866995e-11
6.50830853136e-11
6.50815086988e-11
6.50791257681e-11
6.50767144659e-11
6.50747912129e-11
6.50723070643e-11
6.50696818681e-11
6.50681836036e-11
6.50661614538e-11
6.50633044056e-11
6.50617663243e-11
6.50599046871e-11
6.50573729613e-11
6.50552872717e-11
6.50531382882e-11
6.50504077997e-11
6.5048755495e-11
6.50471833147e-11
6.50448623131e-11
6.50417342668e-11
6.50395951122e-11
6.50381474244e-11
6.50359692279e-11
6.50329621347e-11
6.50304589523e-11
6.50290439021e-11
6.50267669055e-11
6.50234610261e-11
6.50217105267e-11
6.50199456659e-11
6.50174826157e-11
6.50147013631e-11
6.50121394427e-11
6.50099779875e-11
6.50077843083e-11
6.50051328267e-11
6.50026565201e-11
6.50006434665e-11
6.49986571548e-11
6.49959372486e-11
6.49931069915e-11
6.4990247584e-11
6.49887351177e-11
6.49864554474e-11
6.49831355842e-11
6.49813923761e-11
6.49784740635e-11
6.4976285481e-11
6.49743497818e-11
6.497127165e-11
6.49681913259e-11
6.49664298375e-11
6.49635612063e-11
6.49605994065e-11
6.49582804148e-11
6.49557134075e-11
6.49538297837e-11
6.49515486402e-11
6.49481148223e-11
6.49453029022e-11
6.49434791514e-11
6.49401725765e-11
6.49382743786e-11
6.49361224074e-11
6.49326783958e-11
6.49292865204e-11
6.49275816988e-11
6.49256051216e-11
6.49225824223e-11
6.49186825669e-11
6.49166804191e-11
6.49147579809e-11
6.49119212023e-11
6.4908505093e-11
6.49054055706e-11
6.49031860951e-11
6.49007798832e-11
6.48977415097e-11
6.48945354741e-11
6.48913213066e-11
6.48888128857e-11
6.48868016833e-11
6.48845677749e-11
6.48812075309e-11
6.48778959958e-11
6.48748403793e-11
6.48711962555e-11
6.48684002336e-11
6.48662314859e-11
6.48641322054e-11
6.4860689636e-11
6.48572274784e-11
6.48548969579e-11
6.48524670957e-11
6.48488875736e-11
6.48454376149e-11
6.48436344738e-11
6.48410685518e-11
6.4837013479e-11
6.48337280833e-11
6.48318724733e-11
6.48291639516e-11
6.48256142922e-11
6.48220539793e-11
6.48197752858e-11
6.48171292521e-11
6.48132456186e-11
6.48104057605e-11
6.48076837276e-11
6.48043518989e-11
6.48022757528e-11
6.47990964214e-11
6.47951792688e-11
6.47918986586e-11
6.47890716801e-11
6.47857174429e-11
6.4782737712e-11
6.47796010886e-11
6.47768147083e-11
6.47737786188e-11
6.47702255556e-11
6.47667556134e-11
6.47633152236e-11
6.47602630634e-11
6.47575799941e-11
6.47545741916e-11
6.47507877531e-11
6.47465457398e-11
6.4742799065e-11
6.47405057845e-11
6.47382092563e-11
6.47346437202e-11
6.47300442839e-11
6.47262821143e-11
6.47236989516e-11
6.47211723237e-11
6.47173999346e-11
6.4713879322e-11
6.47105894254e-11
6.470713416e-11
6.47028198437e-11
6.46993505823e-11
6.46960098177e-11
6.46926625142e-11
6.46888344327e-11
6.46849261702e-11
6.46810635001e-11
6.4678927422e-11
6.46756002957e-11
6.46706361808e-11
6.46666739517e-11
6.46644210268e-11
6.46613488731e-11
6.46569219602e-11
6.46526436339e-11
6.46485136032e-11
6.46445894251e-11
6.46414575964e-11
6.46388123473e-11
6.4635808428e-11
6.46317192204e-11
6.46266997314e-11
6.46222473775e-11
6.46191448845e-11
6.46166811251e-11
6.46124948143e-11
6.46078758054e-11
6.46038035885e-11
6.46008480575e-11
6.45972840045e-11
6.45944491765e-11
6.45904425451e-11
6.45850344776e-11
6.45803543036e-11
6.45780138742e-11
6.4575289158e-11
6.45716428045e-11
6.45672402953e-11
6.45628025112e-11
6.45585196187e-11
6.45547891553e-11
6.45512108799e-11
6.45468965278e-11
6.45430504393e-11
6.4540397049e-11
6.4535182667e-11
6.45296777615e-11
6.45271979937e-11
6.45238513973e-11
6.45192461553e-11
6.45148199468e-11
6.45123228954e-11
6.45095075473e-11
6.4505236544e-11
6.45000928879e-11
6.44954395101e-11
6.44912785786e-11
6.44878331427e-11
6.44849527652e-11
6.44818201339e-11
6.44783599804e-11
6.44742994131e-11
6.44698462455e-11
6.44653388494e-11
6.44611881493e-11
6.44568484466e-11
6.44530740873e-11
6.44491118164e-11
6.44458495185e-11
6.4441719851e-11
6.44370308526e-11
6.44336758081e-11
6.44298298837e-11
6.44249373796e-11
6.44224557201e-11
6.44188397169e-11
6.44142769596e-11
6.44096331647e-11
6.44055871231e-11
6.44016935006e-11
6.43980737572e-11
6.43947917411e-11
6.43908346698e-11
6.43855956585e-11
6.43812772216e-11
6.43769063363e-11
6.43735414595e-11
6.43710890363e-11
6.43656895424e-11
6.43609298415e-11
6.43583381519e-11
6.43544515138e-11
6.43507305858e-11
6.43466786912e-11
6.43417198292e-11
6.43376976231e-11
6.43350425993e-11
6.43309830025e-11
6.43235529015e-11
6.43200433534e-11
6.43172746745e-11
6.43135322284e-11
6.43107161267e-11
6.4306969678e-11
6.43023120331e-11
6.4297350104e-11
6.42923555647e-11
6.4288550627e-11
6.42861045362e-11
6.4281936987e-11
6.4277322537e-11
6.4274846939e-11
6.42712329593e-11
6.42674452301e-11
6.42630610787e-11
6.42581765294e-11
6.42528643672e-11
6.42491667154e-11
6.42468958551e-11
6.4243193762e-11
6.42390777213e-11
6.42345896448e-11
6.42291373008e-11
6.42246622614e-11
6.4221766682e-11
6.42193152046e-11
6.42151302099e-11
6.4209729017e-11
6.42060289851e-11
6.4203356556e-11
6.4197244851e-11
6.41926543999e-11
6.41900907194e-11
6.41860153955e-11
6.4181208002e-11
6.41777803882e-11
6.41749860725e-11
6.41686531841e-11
6.41618370246e-11
6.41592840167e-11
6.41556386395e-11
6.41525930644e-11
6.41498818517e-11
6.41445055985e-11
6.41393601921e-11
6.41354840445e-11
6.41332307532e-11
6.41298680237e-11
6.41237422916e-11
6.41198879604e-11
6.41161907375e-11
6.41123208532e-11
6.41080709421e-11
6.41030245587e-11
6.40988048646e-11
6.40945480628e-11
6.4089937198e-11
6.40873221471e-11
6.40847723011e-11
6.40794554072e-11
6.40741194263e-11
6.40695414075e-11
6.40670878619e-11
6.4064361232e-11
6.40585437066e-11
6.40537455395e-11
6.40505923379e-11
6.40462198226e-11
6.40422522587e-11
6.40379983919e-11
6.40339790987e-11
6.4029559458e-11
6.40250734879e-11
6.40214876652e-11
6.40173340147e-11
6.40142938045e-11
6.40072290193e-11
6.4003520799e-11
6.40000508452e-11
6.39963604979e-11
6.39917834793e-11
6.39882477925e-11
6.39856489519e-11
6.39820340216e-11
6.397630966e-11
6.39716073708e-11
6.39677688861e-11
6.39638638399e-11
6.39597557085e-11
6.39558177824e-11
6.39498212588e-11
6.39469585464e-11
6.39422529827e-11
6.39388626946e-11
6.39353205917e-11
6.3931172221e-11
6.39262587717e-11
6.39211754898e-11
6.39182414882e-11
6.39135236893e-11
6.3909044428e-11
6.39045408122e-11
6.39002297913e-11
6.38978684583e-11
6.38928426343e-11
6.38879579892e-11
6.38847946637e-11
6.38798153577e-11
6.38769381221e-11
6.38733832717e-11
6.38696378847e-11
6.38668009477e-11
6.38622122151e-11
6.38556283521e-11
6.38500235603e-11
6.3845829044e-11
6.38392577947e-11
6.38363000637e-11
6.38338350446e-11
6.38298259536e-11
6.38256104321e-11
6.38206290985e-11
6.38160397235e-11
6.38124005218e-11
6.38076310018e-11
6.38042984179e-11
6.38005323326e-11
6.37979206017e-11
6.37935661139e-11
6.37888607905e-11
6.37836059303e-11
6.37796291348e-11
6.37752501418e-11
6.37713496754e-11
6.37673881973e-11
6.376235825e-11
6.37576887589e-11
6.37534094915e-11
6.37496525928e-11
6.37473588497e-11
6.37437236724e-11
6.37386106157e-11
6.37335304954e-11
6.37286741918e-11
6.37246596818e-11
6.372056822e-11
6.37148735929e-11
6.37076368493e-11
6.37045012874e-11
6.37021731523e-11
6.36983173605e-11
6.36942270479e-11
6.36904362093e-11
6.36872304259e-11
6.36829438944e-11
6.36776946021e-11
6.36737363171e-11
6.36692489392e-11
6.36636681221e-11
6.36585299649e-11
6.36540313303e-11
6.36511136776e-11
6.36476535908e-11
6.36441984541e-11
6.36406444735e-11
6.36357377254e-11
6.36306159023e-11
6.36260339745e-11
6.36234501764e-11
6.36206106269e-11
6.36153442954e-11
6.36081014383e-11
6.36010262881e-11
6.35973895732e-11
6.35945460427e-11
6.35908543271e-11
6.35878691679e-11
6.3584983053e-11
6.3580774707e-11
6.35751578917e-11
6.3571698329e-11
6.35677112404e-11
6.35631609317e-11
6.35583355e-11
6.35536337419e-11
6.35485558264e-11
6.35445984657e-11
6.35399337015e-11
6.35353928583e-11
6.35308809002e-11
6.35263661301e-11
6.35222164714e-11
6.35201271655e-11
6.3516709223e-11
6.3510153045e-11
6.35038844721e-11
6.34996167371e-11
6.34960951252e-11
6.34933665535e-11
6.34894410306e-11
6.34821860398e-11
6.34769849942e-11
6.34744563717e-11
6.34706815917e-11
6.34681767543e-11
6.34624310044e-11
6.34570949722e-11
6.34542258932e-11
6.34493236779e-11
6.3446019845e-11
6.3442005095e-11
6.34376370698e-11
6.34343717144e-11
6.34299754363e-11
6.34242839283e-11
6.34205930573e-11
6.34158616228e-11
6.34113926303e-11
6.34075390296e-11
6.34034505437e-11
6.33986260829e-11
6.33939053237e-11
6.33893959762e-11
6.33859764613e-11
6.33837454845e-11
6.33797457984e-11
6.33740756891e-11
6.33683291588e-11
6.33629553808e-11
6.33577789291e-11
6.33524302495e-11
6.33458160756e-11
6.33412586011e-11
6.3339065691e-11
6.33362999485e-11
6.33333214133e-11
6.33261823063e-11
6.33212321872e-11
6.3318897609e-11
6.33156054926e-11
6.3310951145e-11
6.33057077927e-11
6.33010989914e-11
6.32973490522e-11
6.32949345246e-11
6.32890733925e-11
6.32808821411e-11
6.32776508325e-11
6.32747113545e-11
6.32697016461e-11
6.3266669991e-11
6.32641850477e-11
6.32593481457e-11
6.32529860552e-11
6.32466141259e-11
6.32414154309e-11
6.32391602224e-11
6.32347086014e-11
6.32317617779e-11
6.32286372986e-11
6.32234515751e-11
6.32178710908e-11
6.32127240551e-11
6.32079273279e-11
6.320319994e-11
6.31987445306e-11
6.31946536231e-11
6.31906147268e-11
6.318611124e-11
6.31811151964e-11
6.31755643451e-11
6.31683984195e-11
6.31643034204e-11
6.31626922653e-11
6.31596718565e-11
6.31553207282e-11
6.31491922713e-11
6.31445570684e-11
6.31398374712e-11
6.31351189261e-11
6.31330492414e-11
6.31295072273e-11
6.31245528049e-11
6.31188624168e-11
6.31143114624e-11
6.31119748549e-11
6.31080282959e-11
6.31009935118e-11
6.30936997806e-11
6.30912073762e-11
6.30874919783e-11
6.30844073722e-11
6.30816980269e-11
6.30772061805e-11
6.30714953323e-11
6.30666388654e-11
6.30629281487e-11
6.3056666523e-11
6.30537404925e-11
6.30491473897e-11
6.30441856499e-11
6.30419329752e-11
6.30391586472e-11
6.30344559556e-11
6.30281853219e-11
6.30219837992e-11
6.30170764952e-11
6.3012523341e-11
6.30079949398e-11
6.30033947687e-11
6.29981887029e-11
6.29937506551e-11
6.29894554505e-11
6.29854334799e-11
6.29813332037e-11
6.29771114051e-11
6.29724447949e-11
6.29674325183e-11
6.29624328366e-11
6.29578052089e-11
6.29532844492e-11
6.29487000848e-11
6.29438575076e-11
6.29392123658e-11
6.29348831174e-11
6.29297102568e-11
6.29246882005e-11
6.29199656604e-11
6.29157002903e-11
6.29114795107e-11
6.2907581613e-11
6.29028734549e-11
6.28956080664e-11
6.28908734681e-11
6.28888633098e-11
6.28851253734e-11
6.28792349555e-11
6.28736265253e-11
6.28701336432e-11
6.28670665327e-11
6.28625885834e-11
6.28583083393e-11
6.28542718062e-11
6.28489311854e-11
6.28446650326e-11
6.28398610596e-11
6.28355308555e-11
6.28331949031e-11
6.28293351639e-11
6.28233059591e-11
6.2817495562e-11
6.28128257423e-11
6.28080494102e-11
6.28039173919e-11
6.27989742021e-11
6.2793666067e-11
6.27884777275e-11
6.27839883674e-11
6.27796280748e-11
6.27757363151e-11
6.27713821819e-11
6.27668821662e-11
6.27624962775e-11
6.2757528315e-11
6.27518108313e-11
6.27459530957e-11
6.2741234762e-11
6.27370584285e-11
6.27324178904e-11
6.27271647216e-11
6.27243673535e-11
6.27215111871e-11
6.2717343229e-11
6.27119708784e-11
6.27057301899e-11
6.26994846293e-11
6.26942187523e-11
6.26898572372e-11
6.26860433864e-11
6.26824952682e-11
6.26793047979e-11
6.26753479407e-11
6.26706248828e-11
6.26656181873e-11
6.26598539755e-11
6.26523228268e-11
6.26454918763e-11
6.26434058081e-11
6.26404173616e-11
6.2636749674e-11
6.26320079902e-11
6.26266314433e-11
6.26217903374e-11
6.26181550014e-11
6.26159738658e-11
6.26119029396e-11
6.26054769189e-11
6.25989820687e-11
6.2593500311e-11
6.25882756405e-11
6.25834587113e-11
6.25793035412e-11
6.25753090935e-11
6.25708594854e-11
6.25656306161e-11
6.25602829089e-11
6.2555382091e-11
6.2550710598e-11
6.25459884543e-11
6.2540230319e-11
6.25351146166e-11
6.25299912464e-11
6.25276468853e-11
6.25241332587e-11
6.25192899323e-11
6.25142948553e-11
6.25100683266e-11
6.25073283927e-11
6.25028386658e-11
6.24962677711e-11
6.24896851945e-11
6.24820040459e-11
6.24768046096e-11
6.24745013477e-11
6.24704681249e-11
6.24653935489e-11
6.2460294755e-11
6.24573140258e-11
6.24546866959e-11
6.24500063516e-11
6.24439462574e-11
6.24381594448e-11
6.24327243988e-11
6.24289428435e-11
6.24267076078e-11
6.24184436291e-11
6.24100551191e-11
6.24065139037e-11
6.24022109915e-11
6.23975645191e-11
6.23925648232e-11
6.23875200765e-11
6.23825517021e-11
6.23772665523e-11
6.23722925483e-11
6.23673214907e-11
6.23632000762e-11
6.23579610145e-11
6.23500258962e-11
6.23465273807e-11
6.23441857915e-11
6.23408836015e-11
6.23363011065e-11
6.23314123823e-11
6.23268755619e-11
6.2322534137e-11
6.23179923037e-11
6.23127721155e-11
6.23063673664e-11
6.2300766844e-11
6.22961410328e-11
6.22915427501e-11
6.22867237968e-11
6.22814894028e-11
6.22769001195e-11
6.22729891386e-11
6.22687048496e-11
6.22639477277e-11
6.22587886309e-11
6.2253369837e-11
6.22479934114e-11
6.22432083353e-11
6.22403913099e-11
6.22375995262e-11
6.22325080521e-11
6.22271750507e-11
6.22243382561e-11
6.22196215752e-11
6.22122819396e-11
6.22020863673e-11
6.21919331145e-11
6.21887402804e-11
6.2185113944e-11
6.21806831816e-11
6.21740574744e-11
6.21690148351e-11
6.21670184617e-11
6.21637136458e-11
6.21584794319e-11
6.21529221661e-11
6.21464455771e-11
6.21414186726e-11
6.21355949535e-11
6.21296310862e-11
6.21263692371e-11
6.21226183465e-11
6.21183032548e-11
6.21148877743e-11
6.21111777104e-11
6.2105977769e-11
6.21004226728e-11
6.20973448779e-11
6.20938927972e-11
6.20851646569e-11
6.20717408801e-11
6.20670871365e-11
6.20626276367e-11
6.20570980639e-11
6.20542163657e-11
6.20507357803e-11
6.20483254968e-11
6.20436014594e-11
6.20363605511e-11
6.20291073375e-11
6.2026354335e-11
6.20222924793e-11
6.20155013282e-11
6.20082222543e-11
6.20053330802e-11
6.20026014511e-11
6.19988538863e-11
6.19934134369e-11
6.19866022474e-11
6.1980156801e-11
6.19747086178e-11
6.19709184562e-11
6.19683647741e-11
6.19638900917e-11
6.19600315544e-11
6.19554184503e-11
6.19486936275e-11
6.19409972417e-11
6.19332746895e-11
6.19262935367e-11
6.19200926813e-11
6.19142061193e-11
6.19040640553e-11
6.1899222101e-11
6.18952271372e-11
6.18907478609e-11
6.18844927482e-11
6.18785479624e-11
6.18759711036e-11
6.18719296763e-11
6.18666226072e-11
6.18630791036e-11
6.18584287881e-11
6.18521968873e-11
6.18467761331e-11
6.18414081994e-11
6.18359808133e-11
6.18307080716e-11
6.1825416634e-11
6.18200837613e-11
6.18145699427e-11
6.18090178214e-11
6.18032432231e-11
6.1797363955e-11
6.17915164769e-11
6.17857164505e-11
6.17801041166e-11
6.17751945734e-11
6.17716566291e-11
6.17686121293e-11
6.17641819394e-11
6.17595353579e-11
6.17524804436e-11
6.17444059787e-11
6.17372437835e-11
6.17313956332e-11
6.17254497046e-11
6.17192465895e-11
6.17135899883e-11
6.1708491622e-11
6.16989976437e-11
6.16929559137e-11
6.16871193245e-11
6.16802249901e-11
6.1677019611e-11
6.16731447411e-11
6.166798664e-11
6.1662342337e-11
6.16568638948e-11
6.16511013873e-11
6.16445020923e-11
6.16384251444e-11
6.16327945991e-11
6.16269795517e-11
6.16209578665e-11
6.16148461577e-11
6.16088870283e-11
6.16031441962e-11
6.15978929436e-11
6.15934512698e-11
6.15902318566e-11
6.15854702304e-11
6.15784760332e-11
6.15703983722e-11
6.15622673429e-11
6.1554664129e-11
6.15473781334e-11
6.15400679702e-11
6.15331194149e-11
6.15262140115e-11
6.15203238876e-11
6.15148325904e-11
6.15100842483e-11
6.15055123537e-11
6.1496485074e-11
6.14839061844e-11
6.14794256871e-11
6.14754165233e-11
6.1470636336e-11
6.14647212637e-11
6.14580366787e-11
6.14508765442e-11
6.14438568312e-11
6.14375687328e-11
6.14317906366e-11
6.14261522421e-11
6.14201927675e-11
6.1411372703e-11
6.1405427816e-11
6.13994054931e-11
6.13930951057e-11
6.13863315482e-11
6.13804479443e-11
6.13739286197e-11
6.13677937398e-11
6.13609061647e-11
6.13535805124e-11
6.13464753967e-11
6.13396729213e-11
6.13332076342e-11
6.13286327966e-11
6.13228075935e-11
6.13142780583e-11
6.13027229253e-11
6.12947989308e-11
6.12832066973e-11
6.12772226282e-11
6.12712495021e-11
6.12649042609e-11
6.12588674427e-11
6.12531764266e-11
6.12473641479e-11
6.1240343579e-11
6.12327436596e-11
6.12251975609e-11
6.12182124855e-11
6.12120189591e-11
6.12068806334e-11
6.12006041951e-11
6.11926321404e-11
6.11816995935e-11
6.11726260226e-11
6.11649444306e-11
6.11570727031e-11
6.11496993215e-11
6.1141975616e-11
6.11338978139e-11
6.11262112613e-11
6.11189751821e-11
6.11118047546e-11
6.11043994152e-11
6.10964522304e-11
6.10877924167e-11
6.10790057366e-11
6.10710960722e-11
6.10633431935e-11
6.10494627004e-11
6.10420463025e-11
6.10350805454e-11
6.10304536183e-11
6.10245175429e-11
6.10165320023e-11
6.10074905729e-11
6.09997730838e-11
6.0993235585e-11
6.09872988997e-11
6.09809694651e-11
6.09733488004e-11
6.09675897885e-11
6.09581955538e-11
6.09470663493e-11
6.09391144556e-11
6.09303070394e-11
6.0925188978e-11
6.09197086433e-11
6.09103741063e-11
6.08982281763e-11
6.08923609988e-11
6.08869794795e-11
6.08806163695e-11
6.08718171077e-11
6.08593034691e-11
6.08529175146e-11
6.08475838781e-11
6.08410420506e-11
6.08330223521e-11
6.08239009278e-11
6.08151212946e-11
6.08072713326e-11
6.07992857043e-11
6.07904280972e-11
6.07820056859e-11
6.07741369876e-11
6.0765783713e-11
6.0757169932e-11
6.0748787606e-11
6.07417412758e-11
6.07354298458e-11
6.07269261975e-11
6.07191234789e-11
6.071294906e-11
6.07021611067e-11
6.0689555716e-11
6.06788449382e-11
6.0668908965e-11
6.06593984676e-11
6.06508473929e-11
6.06413012663e-11
6.06328380894e-11
6.06226672148e-11
6.06106667955e-11
6.06016964332e-11
6.0592366146e-11
6.05818546223e-11
6.05713670202e-11
6.05603730847e-11
6.05492640694e-11
6.05361690515e-11
6.05255181861e-11
6.0515387033e-11
6.05053561302e-11
6.04949801988e-11
6.04840620741e-11
6.04732316977e-11
6.04624654609e-11
6.04514890126e-11
6.04401823469e-11
6.04296599769e-11
6.04183483233e-11
6.04069374748e-11
6.03962488702e-11
6.03851083923e-11
6.03731206323e-11
6.03613169267e-11
6.03496286446e-11
6.03378757539e-11
6.03266747734e-11
6.03155439896e-11
6.03044489517e-11
6.02929899966e-11
6.02809126893e-11
6.02694784835e-11
6.02585471371e-11
6.02479698384e-11
6.02370545714e-11
6.02246310844e-11
6.02119839784e-11
6.02007059283e-11
6.0182190729e-11
6.01719209967e-11
6.01621824441e-11
6.01515292575e-11
6.01397444375e-11
6.01269759243e-11
6.01148860798e-11
6.01020691257e-11
6.00905000018e-11
6.00795970477e-11
6.0068468712e-11
6.00569191375e-11
6.00443810563e-11
6.00332097731e-11
6.00231126792e-11
6.00119152179e-11
6.00022862057e-11
5.99909242716e-11
5.99781338594e-11
5.99652124859e-11
5.9953026195e-11
5.99412859233e-11
5.99295276969e-11
5.99174962514e-11
5.99066161574e-11
5.98959858727e-11
5.98848728053e-11
5.98739137996e-11
5.98626427553e-11
5.98507414798e-11
5.98388714706e-11
5.98270139011e-11
5.98144303739e-11
5.98023794909e-11
5.97908365034e-11
5.97788510371e-11
5.97666984185e-11
5.97545941447e-11
5.97423492136e-11
5.97303323681e-11
5.9718408829e-11
5.97070213137e-11
5.96963157164e-11
5.96857838634e-11
5.9674188982e-11
5.96603241264e-11
5.96463364246e-11
5.96339783807e-11
5.96207607022e-11
5.96079592071e-11
5.95970270229e-11
5.95832978509e-11
5.95716804927e-11
5.95599034578e-11
5.95474760038e-11
5.95348298826e-11
5.95238599745e-11
5.95097191612e-11
5.94968428898e-11
5.94860246622e-11
5.94746653962e-11
5.94627589769e-11
5.94499141947e-11
5.94375773924e-11
5.94245494104e-11
5.94123140291e-11
5.94011719418e-11
5.93904763318e-11
5.93795156854e-11
5.93678971219e-11
5.93558267352e-11
5.93444349651e-11
5.93326818096e-11
5.9319699554e-11
5.93078325542e-11
5.9296446373e-11
5.9284892017e-11
5.92732428049e-11
5.92618020814e-11
5.92493896165e-11
5.92355853514e-11
5.92226716579e-11
5.92117511302e-11
5.92003676421e-11
5.9193304347e-11
5.9184076089e-11
5.91726640279e-11
5.91595853554e-11
5.91449991821e-11
5.9129168411e-11
5.91214928031e-11
5.91115163051e-11
5.91026165692e-11
5.90919413371e-11
5.90794022209e-11
5.90669149932e-11
5.90542524415e-11
5.90420023118e-11
5.90288555493e-11
5.9016566847e-11
5.90052968062e-11
5.89941101939e-11
5.89850157285e-11
5.89741549604e-11
5.8957325255e-11
5.89410247752e-11
5.89327277042e-11
5.89184889836e-11
5.89063789333e-11
5.88950806985e-11
5.88805378045e-11
5.88685458967e-11
5.88568132599e-11
5.88450379418e-11
5.88337380697e-11
5.88225349017e-11
5.8811942546e-11
5.88002564703e-11
5.87873205591e-11
5.87749369029e-11
5.87632736114e-11
5.87519604901e-11
5.87410864811e-11
5.87293999975e-11
5.87178471886e-11
5.87061857531e-11
5.86945465087e-11
5.86828667502e-11
5.86710548672e-11
5.86593225279e-11
5.86480328958e-11
5.8636901927e-11
5.86251073e-11
5.86130181685e-11
5.86012079415e-11
5.85896287875e-11
5.85781882417e-11
5.85666991919e-11
5.85547049828e-11
5.8542658994e-11
5.85308435252e-11
5.85193603797e-11
5.85080627533e-11
5.84969419609e-11
5.84855357805e-11
5.84734282333e-11
5.84610643062e-11
5.84504759704e-11
5.84361723165e-11
5.84240691039e-11
5.84124804546e-11
5.83999700131e-11
5.83876018848e-11
5.8376965742e-11
5.83637809427e-11
5.83524883347e-11
5.83414836591e-11
5.83307712312e-11
5.83196846504e-11
5.83085253761e-11
5.82962813418e-11
5.82840034562e-11
5.8271306667e-11
5.82594482452e-11
5.82487363326e-11
5.82416758477e-11
5.82328110887e-11
5.82209801991e-11
5.82038646114e-11
5.81921054951e-11
5.8182121728e-11
5.8172796421e-11
5.81634693067e-11
5.81541254294e-11
5.81451866459e-11
5.81337495574e-11
5.81211910499e-11
5.8108635236e-11
5.80972078091e-11
5.80851538206e-11
5.8078265448e-11
5.80656670033e-11
5.804467962e-11
5.80285437592e-11
5.80195550183e-11
5.80078987435e-11
5.79975486904e-11
5.79892476992e-11
5.79788835849e-11
5.79704101532e-11
5.79567896765e-11
5.79456796005e-11
5.7934045712e-11
5.79230261813e-11
5.79117009696e-11
5.79016080058e-11
5.78890884107e-11
5.78769643693e-11
5.78627727404e-11
5.78542730786e-11
5.78461382959e-11
5.7836861444e-11
5.78264606755e-11
5.78170230699e-11
5.78056490224e-11
5.7794173969e-11
5.77818506186e-11
5.77693635677e-11
5.77582943466e-11
5.77465195509e-11
5.77353987308e-11
5.77259844155e-11
5.77136912778e-11
5.77042619524e-11
5.7696372489e-11
5.76806441271e-11
5.76628381977e-11
5.76517810554e-11
5.76433436384e-11
5.76326414493e-11
5.7620256879e-11
5.76092226405e-11
5.75967961583e-11
5.75862984772e-11
5.75746667759e-11
5.75636306117e-11
5.75529394779e-11
5.75426148729e-11
5.75322680381e-11
5.7522112879e-11
5.75110017153e-11
5.75001477937e-11
5.74889309222e-11
5.74773565595e-11
5.74660302929e-11
5.74551444046e-11
5.74437206979e-11
5.74318141004e-11
5.74209501141e-11
5.74109193102e-11
5.73997005881e-11
5.73890466203e-11
5.73770716602e-11
5.73665356433e-11
5.73585298319e-11
5.73448086617e-11
5.73331473061e-11
5.73216097509e-11
5.73109513882e-11
5.73012513477e-11
5.72911116438e-11
5.72792976493e-11
5.7267933331e-11
5.72571951781e-11
5.72470421564e-11
5.7234532258e-11
5.72229248424e-11
5.72125445054e-11
5.72018556545e-11
5.71914585896e-11
5.71799539939e-11
5.7168776037e-11
5.71577724742e-11
5.71471743201e-11
5.71361877093e-11
5.71259620166e-11
5.71158905241e-11
5.71055436564e-11
5.70939814701e-11
5.70824396357e-11
5.70710815264e-11
5.70601500838e-11
5.70497020459e-11
5.70392112174e-11
5.70288461231e-11
5.701885098e-11
5.70081686796e-11
5.69966601842e-11
5.69852552416e-11
5.69746010992e-11
5.69646088143e-11
5.69542701453e-11
5.69434955792e-11
5.69326474298e-11
5.6922990632e-11
5.69110785739e-11
5.68995773182e-11
5.68885276379e-11
5.68782647172e-11
5.68676066993e-11
5.68580310445e-11
5.684748661e-11
5.68347371055e-11
5.68254405098e-11
5.68158210314e-11
5.68056414437e-11
5.67935000183e-11
5.67821511322e-11
5.6770086438e-11
5.67571152929e-11
5.67483232264e-11
5.6739846265e-11
5.67297294044e-11
5.67176319849e-11
5.67071975055e-11
5.66964335865e-11
5.66844025692e-11
5.66735916265e-11
5.66634674105e-11
5.66533344366e-11
5.66432816449e-11
5.66336114349e-11
5.66235540627e-11
5.66126091351e-11
5.66007367324e-11
5.65893700064e-11
5.65791609946e-11
5.65678662326e-11
5.655796549e-11
5.65491546762e-11
5.65409315983e-11
5.65320882853e-11
5.65227213971e-11
5.65121954612e-11
5.6501358836e-11
5.64905132507e-11
5.64800214693e-11
5.64700570147e-11
5.64596524836e-11
5.64496340261e-11
5.64397574801e-11
5.64294426234e-11
5.6419144503e-11
5.64085816141e-11
5.63978389087e-11
5.63885539563e-11
5.63765599913e-11
5.63664546515e-11
5.63567933856e-11
5.63472215414e-11
5.63374250057e-11
5.63269496018e-11
5.63148078787e-11
5.63028722843e-11
5.62923927276e-11
5.6283091223e-11
5.62746477271e-11
5.62644655241e-11
5.62494378178e-11
5.62357300994e-11
5.62254215195e-11
5.62154740543e-11
5.6204894338e-11
5.61949317876e-11
5.61851033329e-11
5.61748530993e-11
5.61649281577e-11
5.61558236738e-11
5.6143711517e-11
5.61338322157e-11
5.61251588263e-11
5.61158403711e-11
5.61052787477e-11
5.60947472306e-11
5.60838016736e-11
5.60724311648e-11
5.60620579432e-11
5.60504150767e-11
5.60409103925e-11
5.60327128883e-11
5.60258926027e-11
5.60178719585e-11
5.60088443932e-11
5.59983167303e-11
5.59858396822e-11
5.59739530152e-11
5.59640075219e-11
5.59538489765e-11
5.59447392249e-11
5.59337662009e-11
5.59234655098e-11
5.59142586178e-11