/*--------------------------------*- C++ -*----------------------------------*\
  =========                 |
  \\      /  F ield         | OpenFOAM: The Open Source CFD Toolbox
   \\    /   O peration     | Website:  https://openfoam.org
    \\  /    A nd           | Version:  6
     \\/     M anipulation  |
\*---------------------------------------------------------------------------*/
FoamFile
{
    version     2.0;
    format      ascii;
    class       volScalarField;
    location    "0.0004225";
    object      OH;
}
// * * * * * * * * * * * * * * * * * * * * * * * * * * * * * * * * * * * * * //

dimensions      [0 0 0 0 0 0 0];

internalField   nonuniform List<scalar> 
32000
(
7.50058316531e-05
7.50058316617e-05
7.5005830171e-05
7.50058242693e-05
7.5005816896e-05
7.50058092859e-05
7.50057961679e-05
7.5005780722e-05
7.50057656476e-05
7.50057493781e-05
7.50057294289e-05
7.50057035781e-05
7.50056756446e-05
7.500564933e-05
7.50056248079e-05
7.50056012457e-05
7.5005569103e-05
7.5005529976e-05
7.50054862513e-05
7.50054394659e-05
7.50053929049e-05
7.50053496624e-05
7.50053043795e-05
7.50052600622e-05
7.50052076395e-05
7.50051495213e-05
7.50050887931e-05
7.50050262032e-05
7.50049658383e-05
7.50049099659e-05
7.50048481926e-05
7.50047793316e-05
7.50047037712e-05
7.50046267769e-05
7.50045518342e-05
7.50044858075e-05
7.50044143093e-05
7.50043414845e-05
7.50042595332e-05
7.50041750801e-05
7.50040743978e-05
7.50039849037e-05
7.50038996091e-05
7.50038085586e-05
7.50037036828e-05
7.50035986666e-05
7.50034877265e-05
7.50033789065e-05
7.50032763608e-05
7.50031662491e-05
7.50030664318e-05
7.50029765165e-05
7.50028772834e-05
7.5002784498e-05
7.50026779519e-05
7.50025656384e-05
7.5002426646e-05
7.50022983104e-05
7.50021596321e-05
7.50020143001e-05
7.50018859462e-05
7.50017570251e-05
7.50016184908e-05
7.50014802763e-05
7.50013433632e-05
7.50011989337e-05
7.50010517724e-05
7.50009168213e-05
7.5000759832e-05
7.50006299154e-05
7.50004865285e-05
7.50003293875e-05
7.50001677732e-05
7.50000114306e-05
7.49998464351e-05
7.49996392123e-05
7.49994699468e-05
7.49992895196e-05
7.49991287982e-05
7.4998952429e-05
7.49988076304e-05
7.49986363196e-05
7.4998459742e-05
7.49982711154e-05
7.49980862068e-05
7.49978799111e-05
7.4997676238e-05
7.49974860176e-05
7.49972794076e-05
7.4997105e-05
7.49969021616e-05
7.49967419351e-05
7.49965687871e-05
7.49963901485e-05
7.4996197585e-05
7.49960013351e-05
7.49958110396e-05
7.49955577448e-05
7.49953188747e-05
7.49950830945e-05
7.49948741275e-05
7.49946188629e-05
7.49943867906e-05
7.49941267466e-05
7.49938960208e-05
7.49936991049e-05
7.49934778389e-05
7.49932633166e-05
7.49930857989e-05
7.49928968045e-05
7.49926618857e-05
7.49924613463e-05
7.49922056355e-05
7.49919784624e-05
7.499175754e-05
7.49914492786e-05
7.49912284769e-05
7.49909019037e-05
7.4990628848e-05
7.49903791178e-05
7.49900732028e-05
7.49898270055e-05
7.49895191723e-05
7.49892310754e-05
7.49889999866e-05
7.49887096015e-05
7.4988479148e-05
7.49882380516e-05
7.49879609469e-05
7.498773826e-05
7.49874232641e-05
7.49871345293e-05
7.49868012168e-05
7.49865273478e-05
7.49861893444e-05
7.49858815968e-05
7.49856405055e-05
7.49853907032e-05
7.49850206617e-05
7.49847790023e-05
7.49844700696e-05
7.49842362342e-05
7.49838755951e-05
7.49836399946e-05
7.4983311415e-05
7.49829661621e-05
7.4982707539e-05
7.49822808835e-05
7.49819684994e-05
7.49816988023e-05
7.49813614827e-05
7.49809435397e-05
7.49806161033e-05
7.49802575301e-05
7.49799348379e-05
7.49795703202e-05
7.4979283457e-05
7.49788570284e-05
7.49785844165e-05
7.4978205141e-05
7.49777936692e-05
7.49775009011e-05
7.49772245387e-05
7.49768791676e-05
7.49765938654e-05
7.4976319288e-05
7.49760052528e-05
7.49757164793e-05
7.49753338379e-05
7.49750473589e-05
7.49746634905e-05
7.49742035448e-05
7.49739413723e-05
7.49735377131e-05
7.49730751578e-05
7.49727513532e-05
7.49722419717e-05
7.49718033119e-05
7.49714843015e-05
7.49710646457e-05
7.49705973855e-05
7.49701796621e-05
7.49698352351e-05
7.49694768705e-05
7.4969096429e-05
7.49686621998e-05
7.49683173587e-05
7.4967883356e-05
7.49674943621e-05
7.49672040754e-05
7.49667049676e-05
7.49663942802e-05
7.49659449106e-05
7.49654834558e-05
7.49651523165e-05
7.49646478317e-05
7.49641952664e-05
7.49636678968e-05
7.49633550373e-05
7.49629220979e-05
7.49623409988e-05
7.49620096588e-05
7.49616343319e-05
7.49611746359e-05
7.49607227506e-05
7.49603275592e-05
7.49599018621e-05
7.49595592447e-05
7.49591265013e-05
7.49587939134e-05
7.49583932085e-05
7.49580447484e-05
7.49575911691e-05
7.4957044725e-05
7.49566235477e-05
7.49562517353e-05
7.49557509624e-05
7.49550806499e-05
7.49546614308e-05
7.49540835031e-05
7.49536676106e-05
7.49530474443e-05
7.49526682447e-05
7.49521927843e-05
7.49516154815e-05
7.49509294634e-05
7.49505013596e-05
7.49501420979e-05
7.49495467284e-05
7.49489802301e-05
7.4948645194e-05
7.49481634917e-05
7.4947543081e-05
7.4947207814e-05
7.49467760754e-05
7.49461921831e-05
7.49457357856e-05
7.49453105348e-05
7.49448942821e-05
7.49441867019e-05
7.49437444707e-05
7.49431676148e-05
7.49427070031e-05
7.49422668369e-05
7.49416214598e-05
7.49408775434e-05
7.49405145623e-05
7.49399516041e-05
7.49393168206e-05
7.49389412206e-05
7.49383080791e-05
7.49377262678e-05
7.49373469893e-05
7.49366744654e-05
7.49361851288e-05
7.49358149846e-05
7.49352739431e-05
7.49347261521e-05
7.4934287756e-05
7.49337032233e-05
7.49330642549e-05
7.49327015719e-05
7.49321917253e-05
7.49314419494e-05
7.49310450724e-05
7.49305406968e-05
7.49298234237e-05
7.4929239628e-05
7.49286245714e-05
7.49278340572e-05
7.49273773782e-05
7.49269469486e-05
7.49263014142e-05
7.49254250195e-05
7.4924844514e-05
7.4924461012e-05
7.49238840122e-05
7.49230860065e-05
7.49224313048e-05
7.49220776333e-05
7.49215143e-05
7.49206892189e-05
7.49202611935e-05
7.49198265691e-05
7.49192101535e-05
7.49185036646e-05
7.49178490833e-05
7.49173014967e-05
7.49167373983e-05
7.49160330568e-05
7.49153707826e-05
7.49148421677e-05
7.49143220635e-05
7.49135878618e-05
7.49128253563e-05
7.49120653698e-05
7.49116836282e-05
7.49110939706e-05
7.49102267029e-05
7.49097896981e-05
7.49090358943e-05
7.49084843228e-05
7.49080054926e-05
7.49072335825e-05
7.4906468528e-05
7.49060454648e-05
7.49053319617e-05
7.49045961246e-05
7.49040110738e-05
7.49033573984e-05
7.49028884174e-05
7.49022965638e-05
7.49013561079e-05
7.49006029341e-05
7.49001239889e-05
7.48992180226e-05
7.48987236293e-05
7.48981582041e-05
7.4897220766e-05
7.48963121626e-05
7.48958845724e-05
7.48953881897e-05
7.48945999082e-05
7.48935711745e-05
7.48930705853e-05
7.48925934203e-05
7.48918692088e-05
7.48909893498e-05
7.48901990228e-05
7.48896541944e-05
7.48890687468e-05
7.48883222494e-05
7.4887544491e-05
7.48867753973e-05
7.48861860983e-05
7.48857215162e-05
7.48852002652e-05
7.48843822138e-05
7.48835722461e-05
7.48828229685e-05
7.48819027518e-05
7.48812107024e-05
7.48806939465e-05
7.48801858979e-05
7.48793100462e-05
7.48784304201e-05
7.48778659621e-05
7.48772557523e-05
7.48762936721e-05
7.48753776135e-05
7.48749304798e-05
7.48742422287e-05
7.48730941995e-05
7.4872204924e-05
7.48717314121e-05
7.48710038915e-05
7.48700245675e-05
7.48690630352e-05
7.48684890891e-05
7.48678065453e-05
7.48667800801e-05
7.4866067006e-05
7.4865382424e-05
7.48645514412e-05
7.4864053224e-05
7.4863259127e-05
7.48622535364e-05
7.48614299754e-05
7.48607425561e-05
7.48598969743e-05
7.48591507231e-05
7.4858359968e-05
7.48576716189e-05
7.4856911748e-05
7.4855996883e-05
7.48551058768e-05
7.48542360181e-05
7.485348132e-05
7.48528271815e-05
7.48520870796e-05
7.48511401727e-05
7.48500787028e-05
7.48491667841e-05
7.48486433282e-05
7.48481237674e-05
7.48472806652e-05
7.48461812724e-05
7.48453007673e-05
7.48447239072e-05
7.4844160108e-05
7.48432852106e-05
7.48424713715e-05
7.4841716005e-05
7.48409039633e-05
7.4839857803e-05
7.48390345663e-05
7.48382560278e-05
7.48374705751e-05
7.48365425455e-05
7.48355818283e-05
7.48346582796e-05
7.48341839179e-05
7.48333689217e-05
7.4832096598e-05
7.48311298586e-05
7.48306283856e-05
7.48299081579e-05
7.48288134535e-05
7.48277686628e-05
7.48267709698e-05
7.48258360261e-05
7.48251230565e-05
7.48245386187e-05
7.48238600399e-05
7.48228553056e-05
7.48215753679e-05
7.4820470392e-05
7.48197545993e-05
7.48191877544e-05
7.48181218213e-05
7.48169156215e-05
7.48158860376e-05
7.48151859977e-05
7.48143102653e-05
7.48136191503e-05
7.48125493482e-05
7.48110583195e-05
7.48098474507e-05
7.48093122725e-05
7.48086797434e-05
7.48077838489e-05
7.48066719248e-05
7.48055688631e-05
7.48045450614e-05
7.48036943982e-05
7.48028988403e-05
7.4801956429e-05
7.48011545382e-05
7.480061223e-05
7.47994556708e-05
7.47982519222e-05
7.47977444339e-05
7.47970172981e-05
7.47959547415e-05
7.47949416024e-05
7.4794407289e-05
7.47937697255e-05
7.47926945628e-05
7.47913233781e-05
7.47900921289e-05
7.47890132705e-05
7.47881505069e-05
7.47874606385e-05
7.4786680721e-05
7.47857985759e-05
7.47847265062e-05
7.47835431022e-05
7.47823630369e-05
7.47813069738e-05
7.47802300904e-05
7.47793302588e-05
7.47784063908e-05
7.47776667276e-05
7.47767280514e-05
7.47756809186e-05
7.47749531501e-05
7.47740721476e-05
7.47729694978e-05
7.47724420106e-05
7.47716434665e-05
7.47705620088e-05
7.47694269781e-05
7.47684335634e-05
7.4767486235e-05
7.47666311482e-05
7.4765853406e-05
7.4764850105e-05
7.47634746265e-05
7.4762361292e-05
7.47612685515e-05
7.47604777291e-05
7.4759894525e-05
7.47585264357e-05
7.47573730074e-05
7.47567771488e-05
7.47558687348e-05
7.47549992772e-05
7.47540552431e-05
7.47529234827e-05
7.4752051024e-05
7.47514917953e-05
7.47505645239e-05
7.47488229121e-05
7.47480393013e-05
7.47474361777e-05
7.47466194031e-05
7.47460222116e-05
7.4745124053e-05
7.47439278941e-05
7.47425921615e-05
7.47412457112e-05
7.47402624259e-05
7.47396350393e-05
7.47385118151e-05
7.47372691647e-05
7.47366232753e-05
7.47356662362e-05
7.47346368691e-05
7.47333857778e-05
7.47319912631e-05
7.47305370764e-05
7.47295978017e-05
7.47290323513e-05
7.4728072463e-05
7.47270014396e-05
7.47258195798e-05
7.47243953784e-05
7.47232861985e-05
7.472261508e-05
7.47220496263e-05
7.47210477963e-05
7.47197781744e-05
7.47189479625e-05
7.47183397417e-05
7.47168950959e-05
7.47158490879e-05
7.47152829026e-05
7.47143583955e-05
7.47132735405e-05
7.47125177937e-05
7.47118699881e-05
7.4710292139e-05
7.47086298756e-05
7.47080411239e-05
7.47072086301e-05
7.47065209201e-05
7.47058638334e-05
7.47044613643e-05
7.47031378317e-05
7.47021983245e-05
7.47016711619e-05
7.47008227863e-05
7.46992004875e-05
7.46982059712e-05
7.4697285833e-05
7.46963446406e-05
7.46952744873e-05
7.46939611634e-05
7.46928593332e-05
7.4691749424e-05
7.46905868153e-05
7.46899670774e-05
7.46893327932e-05
7.46878899938e-05
7.46864489775e-05
7.46852711403e-05
7.46846786458e-05
7.46840189931e-05
7.46825120242e-05
7.46812777115e-05
7.46804851678e-05
7.46793979605e-05
7.46784274085e-05
7.46773923113e-05
7.46764159376e-05
7.46753281818e-05
7.46742194193e-05
7.4673347273e-05
7.46723471633e-05
7.46715845538e-05
7.46697758436e-05
7.46688614847e-05
7.46680132506e-05
7.46670950441e-05
7.46659439783e-05
7.46650851342e-05
7.46644744575e-05
7.46635562795e-05
7.46619977569e-05
7.46607217962e-05
7.46597018247e-05
7.46586829161e-05
7.46576175655e-05
7.46565881214e-05
7.46549732135e-05
7.46542284566e-05
7.46530025382e-05
7.46521594647e-05
7.46512885044e-05
7.46502525523e-05
7.46490016428e-05
7.46476571101e-05
7.46468944465e-05
7.46456411742e-05
7.46444456546e-05
7.46432596644e-05
7.46421632536e-05
7.46415764668e-05
7.46402895601e-05
7.46390609677e-05
7.46382861464e-05
7.46370987097e-05
7.46364348657e-05
7.4635621215e-05
7.46347679244e-05
7.46341078629e-05
7.46329710241e-05
7.46313131228e-05
7.46299061807e-05
7.4628820353e-05
7.46271073546e-05
7.4626372246e-05
7.46257827446e-05
7.46247783967e-05
7.46236995343e-05
7.46223581409e-05
7.46211361275e-05
7.46201895866e-05
7.46188792333e-05
7.46179652036e-05
7.46169605684e-05
7.46162744739e-05
7.46150607404e-05
7.46137093501e-05
7.46122095601e-05
7.46111031486e-05
7.46099162118e-05
7.46088845189e-05
7.46078471981e-05
7.46065484485e-05
7.46053776203e-05
7.46043393623e-05
7.46034494665e-05
7.46029018799e-05
7.46020034969e-05
7.46007044897e-05
7.45994216341e-05
7.45982371298e-05
7.45972758472e-05
7.45962477452e-05
7.45947482435e-05
7.45928815889e-05
7.45921142504e-05
7.45915543727e-05
7.45906015401e-05
7.45895905568e-05
7.45886616137e-05
7.45878769995e-05
7.45866727851e-05
7.45851524815e-05
7.4584012353e-05
7.45827133778e-05
7.45810871318e-05
7.45796164787e-05
7.45783680205e-05
7.45775881947e-05
7.4576679981e-05
7.45757762947e-05
7.45748427358e-05
7.45735549369e-05
7.45722447157e-05
7.45711323759e-05
7.45705298127e-05
7.4569849301e-05
7.45685259202e-05
7.45666830615e-05
7.45649025534e-05
7.45640075035e-05
7.45633167407e-05
7.45624225052e-05
7.45617108296e-05
7.45610100732e-05
7.45598759034e-05
7.45583103886e-05
7.45573618728e-05
7.45562548325e-05
7.45549605451e-05
7.45535616005e-05
7.45522002528e-05
7.45507537864e-05
7.45496529101e-05
7.45483865023e-05
7.45471869696e-05
7.45460250196e-05
7.45448914929e-05
7.45438710466e-05
7.45433529622e-05
7.45424557494e-05
7.45406720117e-05
7.45389834868e-05
7.45378519486e-05
7.45369426399e-05
7.45362403543e-05
7.45351740907e-05
7.45331655143e-05
7.45317708886e-05
7.45311199325e-05
7.45301560405e-05
7.45295054639e-05
7.45279334937e-05
7.45264970654e-05
7.45257293151e-05
7.45243552703e-05
7.45234444002e-05
7.4522342741e-05
7.45211382905e-05
7.45202338879e-05
7.45189550186e-05
7.45172754924e-05
7.45162032755e-05
7.4514839242e-05
7.45135741717e-05
7.45125035247e-05
7.45113740172e-05
7.45100576381e-05
7.45088056564e-05
7.4507653343e-05
7.45068041871e-05
7.45062445135e-05
7.45052091018e-05
7.45037405441e-05
7.45022699434e-05
7.45008953555e-05
7.4499553479e-05
7.44981564305e-05
7.44964659592e-05
7.44953443681e-05
7.44948190524e-05
7.44941353064e-05
7.44933447428e-05
7.44913793578e-05
7.44900531642e-05
7.44894516994e-05
7.44885807448e-05
7.44873055938e-05
7.44858581102e-05
7.44845929394e-05
7.44835725253e-05
7.4482889835e-05
7.4481161252e-05
7.44788111138e-05
7.44779287967e-05
7.44771566659e-05
7.44758653909e-05
7.44750993207e-05
7.447444928e-05
7.44731279794e-05
7.44713855509e-05
7.44696491032e-05
7.44682687778e-05
7.44676850042e-05
7.44665164851e-05
7.4465735354e-05
7.44648651928e-05
7.44633757588e-05
7.44617777485e-05
7.44603398005e-05
7.44590379398e-05
7.44577882373e-05
7.4456640796e-05
7.44556144518e-05
7.44546149324e-05
7.44534732331e-05
7.44521235037e-05
7.44505442581e-05
7.44485436767e-05
7.44474595032e-05
7.44470746063e-05
7.44463312313e-05
7.44451073185e-05
7.44432763261e-05
7.44418896451e-05
7.44405041599e-05
7.44391711583e-05
7.44386097925e-05
7.44376155197e-05
7.44361966013e-05
7.44345932701e-05
7.44333483308e-05
7.44327044846e-05
7.443153756e-05
7.44294168101e-05
7.44272831634e-05
7.44265915386e-05
7.44255828956e-05
7.442475395e-05
7.44240117806e-05
7.44227021472e-05
7.44209921518e-05
7.44195572593e-05
7.44184667082e-05
7.44166846161e-05
7.44158689129e-05
7.44146304586e-05
7.44133480828e-05
7.44127846389e-05
7.44120723234e-05
7.44108101565e-05
7.44091343563e-05
7.44074615752e-05
7.44061551244e-05
7.44049218346e-05
7.44036724553e-05
7.4402372895e-05
7.44008902576e-05
7.4399642664e-05
7.43984412877e-05
7.43973224424e-05
7.43961818942e-05
7.4395005717e-05
7.43937057787e-05
7.43923315109e-05
7.43909849331e-05
7.43897583034e-05
7.43885761738e-05
7.43873977889e-05
7.4386160998e-05
7.43849698389e-05
7.43838084515e-05
7.43823740642e-05
7.43809632317e-05
7.43797039898e-05
7.4378580239e-05
7.43774496983e-05
7.43763678077e-05
7.4374954213e-05
7.43727597977e-05
7.43713779585e-05
7.43708095545e-05
7.43697419143e-05
7.43679851571e-05
7.43662942946e-05
7.43652492088e-05
7.43643532167e-05
7.43630224148e-05
7.43617561436e-05
7.43605661396e-05
7.43589907917e-05
7.43577501365e-05
7.43563791647e-05
7.43551687249e-05
7.43545168086e-05
7.4353411109e-05
7.43516963704e-05
7.43500866048e-05
7.43488273495e-05
7.43475541857e-05
7.4346465901e-05
7.43451552054e-05
7.43437353774e-05
7.43423550796e-05
7.43411773324e-05
7.43400421873e-05
7.43390247312e-05
7.43378588146e-05
7.43366177005e-05
7.43353555474e-05
7.43338614553e-05
7.43321165314e-05
7.43303524507e-05
7.43289660874e-05
7.43277625137e-05
7.4326444153e-05
7.43249841003e-05
7.43242197736e-05
7.43234261765e-05
7.43222296947e-05
7.43206571926e-05
7.43188258279e-05
7.43170477499e-05
7.43156097027e-05
7.43144666305e-05
7.43134920231e-05
7.43125876134e-05
7.43117594989e-05
7.43106978995e-05
7.43093834963e-05
7.4307902467e-05
7.43060844551e-05
7.4303702918e-05
7.43016242677e-05
7.43010238994e-05
7.43001835232e-05
7.42991283501e-05
7.42977298002e-05
7.42961475987e-05
7.42947425719e-05
7.4293699231e-05
7.42930599584e-05
7.42918087271e-05
7.42898054487e-05
7.42878334724e-05
7.42862582818e-05
7.42848427421e-05
7.4283592101e-05
7.42825339095e-05
7.42815111273e-05
7.42803526084e-05
7.42789922125e-05
7.42775882534e-05
7.42762934534e-05
7.42750377828e-05
7.42737280404e-05
7.42721354055e-05
7.42707176793e-05
7.42693108047e-05
7.42686833015e-05
7.4267715501e-05
7.42663188959e-05
7.42648367161e-05
7.42635530304e-05
7.4262683794e-05
7.42612039592e-05
7.42589807761e-05
7.42567558354e-05
7.42542845978e-05
7.42526737971e-05
7.42519897381e-05
7.42508105213e-05
7.42493616599e-05
7.4247958275e-05
7.42471598212e-05
7.42464444385e-05
7.42451745861e-05
7.42435783241e-05
7.42420787917e-05
7.42407227155e-05
7.42398375063e-05
7.42393181118e-05
7.42372367452e-05
7.42351229009e-05
7.42342440339e-05
7.42331808349e-05
7.42320093179e-05
7.42307179197e-05
7.42293668038e-05
7.42279735121e-05
7.42264659946e-05
7.42250726748e-05
7.42236503809e-05
7.42224110582e-05
7.42207367283e-05
7.42182326595e-05
7.42171682646e-05
7.42164926133e-05
7.42155570113e-05
7.42142079597e-05
7.42127488408e-05
7.42113864372e-05
7.42100639794e-05
7.42086096338e-05
7.42068204211e-05
7.42045647727e-05
7.42026081087e-05
7.42010216281e-05
7.41994758337e-05
7.41978869285e-05
7.41962037504e-05
7.41947642566e-05
7.41935540571e-05
7.41922158129e-05
7.41907256579e-05
7.41891365488e-05
7.41875341618e-05
7.41860398822e-05
7.4184793339e-05
7.41840908059e-05
7.41833908301e-05
7.41821114959e-05
7.41808174636e-05
7.41801737254e-05
7.41791540659e-05
7.41773592237e-05
7.41744642873e-05
7.41715242563e-05
7.41706212581e-05
7.41696032359e-05
7.41683116151e-05
7.4166359352e-05
7.41649212314e-05
7.41643890762e-05
7.41634810089e-05
7.41618749627e-05
7.41600899443e-05
7.41580211173e-05
7.41564347064e-05
7.41546728907e-05
7.41529577881e-05
7.41520561697e-05
7.41510427556e-05
7.41499006254e-05
7.41490142253e-05
7.41480624555e-05
7.41467571465e-05
7.41453952904e-05
7.4144642417e-05
7.41436795524e-05
7.41409707201e-05
7.4136781674e-05
7.4135367928e-05
7.41340700891e-05
7.41325312311e-05
7.41317649751e-05
7.41308759581e-05
7.41302564035e-05
7.41288441706e-05
7.41264629205e-05
7.41240612822e-05
7.41231676193e-05
7.41218180532e-05
7.41195700803e-05
7.41172821909e-05
7.41164214597e-05
7.41156253572e-05
7.41144881107e-05
7.41127763187e-05
7.4110674949e-05
7.41088026971e-05
7.41073353412e-05
7.4106374144e-05
7.41057391387e-05
7.41046168742e-05
7.41036396099e-05
7.41024296645e-05
7.41007000414e-05
7.40987964297e-05
7.4096828593e-05
7.4095069141e-05
7.4093589917e-05
7.40920542456e-05
7.4089148704e-05
7.40877738107e-05
7.4086667523e-05
7.40854292222e-05
7.40836292217e-05
7.40819375648e-05
7.40812316315e-05
7.40801273433e-05
7.40786189938e-05
7.4077609333e-05
7.40761909063e-05
7.40742505615e-05
7.40725263624e-05
7.40707724646e-05
7.40689866987e-05
7.40672618962e-05
7.40655387793e-05
7.40637934701e-05
7.40619834527e-05
7.40601826542e-05
7.40583372561e-05
7.40565167551e-05
7.40547805026e-05
7.40531427766e-05
7.40516429025e-05
7.40503926012e-05
7.40495133796e-05
7.4048742469e-05
7.40475968973e-05
7.40463747111e-05
7.40445080396e-05
7.40423893587e-05
7.40405471526e-05
7.40390875502e-05
7.40376272313e-05
7.40360920489e-05
7.4034717945e-05
7.40334452197e-05
7.40304329878e-05
7.40284875608e-05
7.40266145568e-05
7.40244804973e-05
7.40235406423e-05
7.40224544464e-05
7.40209963976e-05
7.40193669473e-05
7.40177308421e-05
7.40159370771e-05
7.40138535198e-05
7.40119623954e-05
7.40102450263e-05
7.4008507133e-05
7.4006752981e-05
7.40050311203e-05
7.40034187467e-05
7.40019313681e-05
7.40006266851e-05
7.39995445434e-05
7.39987475534e-05
7.39975303624e-05
7.39957329704e-05
7.39936837966e-05
7.39916348958e-05
7.39896828164e-05
7.39877770106e-05
7.39858623977e-05
7.39840861314e-05
7.39823451594e-05
7.3980850137e-05
7.39794302413e-05
7.39781541294e-05
7.39768101957e-05
7.39738579296e-05
7.39698185905e-05
7.39684683506e-05
7.3967360675e-05
7.39661021614e-05
7.39645029217e-05
7.39626551637e-05
7.39606871938e-05
7.39588025643e-05
7.39571851971e-05
7.39557518218e-05
7.39543095761e-05
7.395262588e-05
7.3950022377e-05
7.39483122563e-05
7.39466448814e-05
7.39449703774e-05
7.39432019241e-05
7.39416808584e-05
7.39399482036e-05
7.3938287639e-05
7.39363943795e-05
7.39343858055e-05
7.39324751433e-05
7.39306750779e-05
7.39289698881e-05
7.3927739658e-05
7.39261062887e-05
7.3923602108e-05
7.39202447166e-05
7.39180889157e-05
7.39149354225e-05
7.3913351568e-05
7.3911815931e-05
7.39102384115e-05
7.39087993463e-05
7.39074537251e-05
7.3906061739e-05
7.39043419899e-05
7.39024750936e-05
7.39006540371e-05
7.3898978159e-05
7.38974681059e-05
7.38961596495e-05
7.38944902727e-05
7.38922706787e-05
7.38892204592e-05
7.3886782972e-05
7.38847796837e-05
7.38827386209e-05
7.38808504116e-05
7.38789322203e-05
7.38770230765e-05
7.38752886143e-05
7.38736904548e-05
7.38721039939e-05
7.38704433601e-05
7.38686375789e-05
7.38666587157e-05
7.38646468906e-05
7.38628309483e-05
7.38607680957e-05
7.38567992443e-05
7.38547380391e-05
7.38528971619e-05
7.38517419835e-05
7.3850320016e-05
7.3848319047e-05
7.38459797351e-05
7.3843973037e-05
7.38422838102e-05
7.38407783898e-05
7.38391812654e-05
7.3837205761e-05
7.38356366117e-05
7.38328801976e-05
7.38295934591e-05
7.38273515752e-05
7.38250261551e-05
7.3823727216e-05
7.38223009392e-05
7.3819733955e-05
7.38164779998e-05
7.38149918626e-05
7.3813641431e-05
7.38119435866e-05
7.38094395592e-05
7.38059319772e-05
7.38042276861e-05
7.38028837151e-05
7.38012616517e-05
7.3799195512e-05
7.37967733538e-05
7.37944158987e-05
7.37922837682e-05
7.37900436644e-05
7.37875510882e-05
7.3785251437e-05
7.37831733661e-05
7.37810176867e-05
7.37788480972e-05
7.37768012739e-05
7.37751256563e-05
7.37736176939e-05
7.37715598104e-05
7.3769657777e-05
7.37680889425e-05
7.37652652502e-05
7.37620590409e-05
7.37594766083e-05
7.37572249732e-05
7.37551779492e-05
7.37533916103e-05
7.37513791405e-05
7.37495723986e-05
7.37473237904e-05
7.37446557226e-05
7.3742720962e-05
7.37407200276e-05
7.37384547438e-05
7.3736122314e-05
7.37336488777e-05
7.37311884058e-05
7.37279891697e-05
7.3725456315e-05
7.37230976668e-05
7.37208140025e-05
7.37184705859e-05
7.37160128541e-05
7.37135900513e-05
7.37111666431e-05
7.37086831229e-05
7.37061125409e-05
7.37036776328e-05
7.37009200837e-05
7.36981811796e-05
7.36956834148e-05
7.36930445472e-05
7.36901457473e-05
7.36873473532e-05
7.3684633051e-05
7.36819495071e-05
7.36794605918e-05
7.36770294781e-05
7.36746259013e-05
7.36721319392e-05
7.36695235178e-05
7.36671554556e-05
7.36649604721e-05
7.3662847702e-05
7.36606529003e-05
7.36580396221e-05
7.36553338372e-05
7.36528907304e-05
7.36485766407e-05
7.36463788862e-05
7.36444464374e-05
7.36423171668e-05
7.36398592475e-05
7.36371286436e-05
7.36342807228e-05
7.36310524746e-05
7.3628201775e-05
7.36256002589e-05
7.36229790762e-05
7.36202706417e-05
7.36173739106e-05
7.36148966358e-05
7.36127177782e-05
7.36102403076e-05
7.36080409553e-05
7.36052400606e-05
7.36019124018e-05
7.3598535231e-05
7.35954316968e-05
7.35925118039e-05
7.35896676212e-05
7.3586790181e-05
7.35843039051e-05
7.35818722516e-05
7.35793133083e-05
7.35767602716e-05
7.35740566082e-05
7.35711289762e-05
7.35681779985e-05
7.35651436738e-05
7.35618602628e-05
7.35588013565e-05
7.35559675208e-05
7.35530733991e-05
7.35502078778e-05
7.35474452259e-05
7.35447248115e-05
7.35421074393e-05
7.35395653942e-05
7.35371912402e-05
7.3534988706e-05
7.35327590985e-05
7.3530183032e-05
7.35270754228e-05
7.35240477077e-05
7.35214736406e-05
7.35187496135e-05
7.35161407681e-05
7.35139144528e-05
7.35109656008e-05
7.35085359363e-05
7.35061155926e-05
7.35035139906e-05
7.35008371776e-05
7.34985969099e-05
7.3495263902e-05
7.3492294752e-05
7.34899960797e-05
7.34875887932e-05
7.34849389361e-05
7.34820287322e-05
7.34789873159e-05
7.34755757054e-05
7.34724278066e-05
7.34696873952e-05
7.34672004641e-05
7.34647390166e-05
7.34620803118e-05
7.34592238893e-05
7.34563656815e-05
7.34532051862e-05
7.34495935219e-05
7.34464409519e-05
7.34435318264e-05
7.34405521298e-05
7.34374844023e-05
7.34343636046e-05
7.34308773946e-05
7.34270429324e-05
7.34236988795e-05
7.34211678684e-05
7.34187250935e-05
7.34173033369e-05
7.34153248435e-05
7.34125517698e-05
7.34090335426e-05
7.34049698382e-05
7.3400834119e-05
7.33991325222e-05
7.3396999113e-05
7.33950986057e-05
7.33925848679e-05
7.3389414884e-05
7.33861974505e-05
7.33829611368e-05
7.33798974889e-05
7.3376695828e-05
7.33739233425e-05
7.33715486229e-05
7.33692163169e-05
7.33673451034e-05
7.33650490577e-05
7.33613950061e-05
7.33578743219e-05
7.33562312703e-05
7.33533171394e-05
7.33508255007e-05
7.33485792583e-05
7.33452113713e-05
7.33424143638e-05
7.33397152088e-05
7.33370344502e-05
7.33345729837e-05
7.33321815537e-05
7.33298039798e-05
7.33268922926e-05
7.33234918742e-05
7.33202911346e-05
7.33173520929e-05
7.33145310417e-05
7.33118564325e-05
7.3308911293e-05
7.33059815107e-05
7.33029866091e-05
7.32999698702e-05
7.32969114714e-05
7.32937974772e-05
7.32907329806e-05
7.328783224e-05
7.32849610449e-05
7.3281866213e-05
7.32787014841e-05
7.32756764516e-05
7.32727500422e-05
7.32698642323e-05
7.32669417714e-05
7.3263875224e-05
7.32608410428e-05
7.32579381517e-05
7.32551913973e-05
7.32525457147e-05
7.32499642759e-05
7.324732237e-05
7.32445806271e-05
7.32418482866e-05
7.32395344073e-05
7.32363471575e-05
7.32337445558e-05
7.32311281004e-05
7.32280435823e-05
7.32248431405e-05
7.32219297611e-05
7.32183131396e-05
7.3215378268e-05
7.32126730499e-05
7.32101108172e-05
7.32073019277e-05
7.32042921517e-05
7.32008181566e-05
7.31972283578e-05
7.31936390487e-05
7.31905529993e-05
7.31878978263e-05
7.31863595785e-05
7.31841279457e-05
7.31806951726e-05
7.31755745018e-05
7.31723272969e-05
7.31698102144e-05
7.31675766248e-05
7.31654249125e-05
7.31632633856e-05
7.31612503639e-05
7.31584779753e-05
7.31554389904e-05
7.31525262048e-05
7.31499569829e-05
7.31473542227e-05
7.31459347631e-05
7.31426191483e-05
7.31361807398e-05
7.31313607768e-05
7.31290255095e-05
7.31260562964e-05
7.31234827849e-05
7.31216429723e-05
7.3119170793e-05
7.31170548769e-05
7.31133074916e-05
7.31103640208e-05
7.31072652023e-05
7.31043416214e-05
7.31011713e-05
7.30983040434e-05
7.30946007342e-05
7.30909122909e-05
7.3086711888e-05
7.30844485611e-05
7.30823319222e-05
7.30800045742e-05
7.30773306997e-05
7.30748603692e-05
7.3071646302e-05
7.30683407548e-05
7.306482482e-05
7.30613911434e-05
7.30585863056e-05
7.30557579051e-05
7.30531942834e-05
7.30510644903e-05
7.30482397749e-05
7.30461536366e-05
7.30443638817e-05
7.30402313082e-05
7.30355228588e-05
7.30328135623e-05
7.30307936566e-05
7.30280501285e-05
7.30248749512e-05
7.30220727003e-05
7.30188052794e-05
7.30159729478e-05
7.30128973525e-05
7.30099843832e-05
7.30071914412e-05
7.30045876636e-05
7.30018481273e-05
7.2999059414e-05
7.29958709209e-05
7.29927473291e-05
7.29894824263e-05
7.29861015701e-05
7.29828149778e-05
7.29796761604e-05
7.2976410902e-05
7.29730744013e-05
7.29701920809e-05
7.29675777953e-05
7.29646568607e-05
7.29619845312e-05
7.29590249974e-05
7.29565720023e-05
7.29546845184e-05
7.29511731541e-05
7.29481482862e-05
7.29451251161e-05
7.29423349559e-05
7.2939818856e-05
7.29371702717e-05
7.29341400911e-05
7.29312668136e-05
7.2928578164e-05
7.29259418054e-05
7.29225157123e-05
7.29193700452e-05
7.29167306154e-05
7.29140336401e-05
7.29113293818e-05
7.2908201844e-05
7.29051483568e-05
7.2902201981e-05
7.28994373342e-05
7.28964940397e-05
7.28937529856e-05
7.28910158052e-05
7.28881327582e-05
7.288478776e-05
7.28813704039e-05
7.28780003268e-05
7.28748399785e-05
7.28719198474e-05
7.28690352492e-05
7.2866178934e-05
7.28633736287e-05
7.28602707236e-05
7.28569003139e-05
7.28536227752e-05
7.28506576637e-05
7.28479651695e-05
7.28451927133e-05
7.28422978219e-05
7.28393756354e-05
7.283674672e-05
7.28334246989e-05
7.28302423531e-05
7.28272591334e-05
7.28246177229e-05
7.28219480645e-05
7.28195958881e-05
7.28168591003e-05
7.2813509319e-05
7.28110964123e-05
7.28087211019e-05
7.28061575124e-05
7.28030300265e-05
7.28001213826e-05
7.27969411952e-05
7.2793433246e-05
7.27912656397e-05
7.27892027756e-05
7.27866307136e-05
7.27835567219e-05
7.27808769412e-05
7.27779511128e-05
7.27745152816e-05
7.27714454051e-05
7.27687226182e-05
7.27660340869e-05
7.27632769093e-05
7.27605343058e-05
7.27575547844e-05
7.27540872066e-05
7.27501487968e-05
7.27463583732e-05
7.2743120363e-05
7.27396663534e-05
7.27367820587e-05
7.2734443681e-05
7.27322272474e-05
7.27296595777e-05
7.27268017781e-05
7.27234827551e-05
7.27200623624e-05
7.27166599459e-05
7.27134389862e-05
7.2710438238e-05
7.27073128224e-05
7.27043565972e-05
7.27014681182e-05
7.26984607374e-05
7.26954412716e-05
7.26924602563e-05
7.26895017721e-05
7.26869042967e-05
7.26834628453e-05
7.26806643039e-05
7.26780785012e-05
7.26755727703e-05
7.26730272111e-05
7.26703167759e-05
7.26671888052e-05
7.26642302326e-05
7.26618198489e-05
7.26598049279e-05
7.26579806963e-05
7.26555399103e-05
7.26516119651e-05
7.2648124268e-05
7.26457432857e-05
7.26433649471e-05
7.26408013543e-05
7.26382674015e-05
7.2635816464e-05
7.26330650629e-05
7.26303472047e-05
7.26278115506e-05
7.2624401624e-05
7.26217649272e-05
7.26194697831e-05
7.26167839715e-05
7.2613532695e-05
7.26102038378e-05
7.26066586565e-05
7.26029218124e-05
7.25995148241e-05
7.25957952554e-05
7.25930140143e-05
7.259083552e-05
7.25891707361e-05
7.2586973073e-05
7.25842175392e-05
7.25807650756e-05
7.25765792895e-05
7.25727697146e-05
7.2569890496e-05
7.2567122722e-05
7.25646612253e-05
7.25615802886e-05
7.25587870226e-05
7.25563887806e-05
7.2554046152e-05
7.25516130925e-05