/*--------------------------------*- C++ -*----------------------------------*\
  =========                 |
  \\      /  F ield         | OpenFOAM: The Open Source CFD Toolbox
   \\    /   O peration     | Website:  https://openfoam.org
    \\  /    A nd           | Version:  6
     \\/     M anipulation  |
\*---------------------------------------------------------------------------*/
FoamFile
{
    version     2.0;
    format      ascii;
    class       volScalarField;
    location    "0.0004225";
    object      p;
}
// * * * * * * * * * * * * * * * * * * * * * * * * * * * * * * * * * * * * * //

dimensions      [1 -1 -2 0 0 0 0];

internalField   nonuniform List<scalar> 
32000
(
11375.0582286
11375.0606017
11375.0643206
11375.0703802
11375.0782649
11375.088687
11375.1008635
11375.1155226
11375.1318166
11375.1495944
11375.1682879
11375.1876269
11375.2072245
11375.2267193
11375.2458485
11375.2648534
11375.2842385
11375.3022165
11375.3198664
11375.3373618
11375.3548396
11375.372543
11375.390887
11375.4103109
11375.4314039
11375.4547428
11375.4812889
11375.5112254
11375.5449341
11375.5828294
11375.6253205
11375.672351
11375.7215358
11375.7708513
11375.8196138
11375.872897
11375.9256447
11375.9814429
11376.037955
11376.0971043
11376.1582866
11376.2222264
11376.2890958
11376.3579045
11376.4252645
11376.4889796
11376.5468596
11376.5974806
11376.6403912
11376.6754337
11376.7024195
11376.7210927
11376.730691
11376.7323179
11376.7281846
11376.7203058
11376.7102518
11376.6993308
11376.6891664
11376.6796381
11376.670317
11376.6610187
11376.651769
11376.6427249
11376.633982
11376.6259555
11376.618774
11376.6121972
11376.6074905
11376.6022178
11376.5969802
11376.5919292
11376.5869325
11376.5825421
11376.5785272
11376.5745016
11376.569961
11376.5647727
11376.558701
11376.5514788
11376.5429519
11376.5329717
11376.5214938
11376.5087772
11376.4962958
11376.4854495
11376.4770674
11376.4718342
11376.4696865
11376.4729363
11376.4807239
11376.4933013
11376.5111126
11376.5346835
11376.5643327
11376.5991641
11376.638716
11376.6839757
11376.737545
11376.8018528
11376.874348
11376.9471918
11377.0168057
11377.0813516
11377.1395061
11377.1902081
11377.2332681
11377.2676256
11377.2930267
11377.3107553
11377.3199149
11377.3224148
11377.3182203
11377.3012552
11377.2759217
11377.2391113
11377.1893185
11377.1290832
11377.0623381
11376.9877734
11376.8994144
11376.8002285
11376.6967497
11376.586549
11376.4768979
11376.371839
11376.2707358
11376.1742526
11376.0827281
11375.9964142
11375.9157852
11375.8406026
11375.7709375
11375.7068916
11375.6482327
11375.5951429
11375.5475813
11375.5052514
11375.4680958
11375.4360111
11375.4085961
11375.3852745
11375.3662604
11375.3510456
11375.3396008
11375.3307875
11375.3256249
11375.3231933
11375.3244045
11375.3284276
11375.3353704
11375.3453547
11375.3585318
11375.374961
11375.3946845
11375.417701
11375.443841
11375.472649
11375.5035845
11375.5359676
11375.5675767
11375.5971269
11375.6240372
11375.6477809
11375.6680121
11375.6845996
11375.697648
11375.707424
11375.7142913
11375.718648
11375.7206778
11375.7208921
11375.7190553
11375.7141728
11375.7088772
11375.7031201
11375.6981128
11375.6954417
11375.6950631
11375.6967931
11375.7010396
11375.7085243
11375.7197448
11375.7348533
11375.7544441
11375.7786851
11375.8076457
11375.8418981
11375.8809995
11375.9256076
11375.9752634
11376.0303371
11376.0906404
11376.1562257
11376.2208263
11376.2784882
11376.330252
11376.3747237
11376.4095069
11376.4340725
11376.4508773
11376.4636581
11376.4743013
11376.4810406
11376.4835741
11376.4819206
11376.4766942
11376.4665298
11376.4508528
11376.4291458
11376.4018165
11376.3690665
11376.3314119
11376.2890138
11376.2420833
11376.1906681
11376.1348528
11376.079288
11376.0301474
11375.985735
11375.9463011
11375.9126
11375.8836724
11375.8577659
11375.8343602
11375.81424
11375.7978724
11375.7845668
11375.773124
11375.7629389
11375.7542605
11375.7476848
11375.7434555
11375.741265
11375.7404612
11375.7403718
11375.7409325
11375.7426035
11375.7456461
11375.7501509
11375.756134
11375.7636024
11375.7725971
11375.7832382
11375.7958703
11375.8109012
11375.8277694
11375.8455679
11375.8651674
11375.8863203
11375.9098399
11375.9361369
11375.9651053
11375.9978273
11376.033619
11376.0731935
11376.1165272
11376.1633831
11376.2146784
11376.2698774
11376.3298852
11376.394753
11376.4646346
11376.5402424
11376.6212568
11376.7084836
11376.8017869
11376.9015815
11377.0081679
11377.1215339
11377.2422313
11377.3700968
11377.5056846
11377.6489615
11377.8003647
11377.9600084
11378.1280004
11378.3005568
11378.4613206
11378.6087181
11378.7433097
11378.8641516
11378.9700393
11379.0605883
11379.1362535
11379.1978026
11379.2462194
11379.2830984
11379.3105978
11379.3307803
11379.3451844
11379.3552379
11379.3625309
11379.365793
11379.3640627
11379.3583241
11379.3478054
11379.3318754
11379.3101875
11379.2824106
11379.2485178
11379.2097237
11379.1766835
11379.1529932
11379.1371923
11379.1274025
11379.1220835
11379.1202027
11379.1207176
11379.1255565
11379.1332841
11379.1443034
11379.1594437
11379.1785645
11379.202397
11379.2305211
11379.2634614
11379.300682
11379.3424201
11379.3881089
11379.4377489
11379.4908287
11379.5471776
11379.6064758
11379.6687068
11379.7341041
11379.8002446
11379.859091
11379.9097654
11379.9527217
11379.9883318
11380.0165472
11380.037426
11380.0515753
11380.0601075
11380.064779
11380.0676038
11380.0677078
11380.0646275
11380.0573812
11380.0447935
11380.0255665
11379.9991181
11379.9643453
11379.9210225
11379.8683128
11379.805958
11379.7333778
11379.6502751
11379.5563542
11379.4515614
11379.3357311
11379.209299
11379.0720237
11378.9246883
11378.7669777
11378.5996548
11378.4225448
11378.2465062
11378.0872859
11377.9434296
11377.8126237
11377.6924461
11377.5805906
11377.4749365
11377.3735471
11377.2746686
11377.1769315
11377.0795751
11376.9824292
11376.8855709
11376.7873718
11376.6874269
11376.5873983
11376.4800308
11376.3713111
11376.2534643
11376.1253569
11375.9906814
11375.831948
11375.6700541
11375.4679925
11375.2655615
11375.0060598
11374.7458627
11374.4143655
11374.0756378
11373.65581
11373.2162291
11372.68904
11372.1250502
11371.4686102
11370.7556626
11369.945334
11369.0579272
11368.0665674
11366.9780371
11365.7761611
11364.4581961
11363.0139686
11361.4902275
11360.1629306
11359.0817471
11358.2263803
11357.5736533
11357.0974478
11356.7700348
11356.5628857
11356.4478917
11356.3974364
11356.3847168
11356.3908205
11356.4102228
11356.4560948
11356.5393518
11356.6733491
11356.8681731
11357.1360495
11357.4853291
11357.9253828
11358.4617091
11359.0993885
11359.8399016
11360.6830846
11361.6255942
11362.6617835
11363.7833543
11364.97972
11366.238341
11367.5334693
11368.7756146
11369.9599282
11371.1080524
11372.234848
11373.3504744
11374.4614524
11375.5713774
11376.6816927
11377.7936419
11378.9097745
11380.0332081
11381.1681686
11382.3190378
11383.4908214
11384.6882597
11385.9160867
11387.17835
11388.4784989
11389.8189635
11391.2011763
11392.6253926
11394.0907423
11395.5952271
11397.1358525
11398.7087511
11400.3004464
11401.8568264
11403.3733394
11404.8590495
11406.3207977
11407.7640157
11409.1930537
11410.6114243
11412.0219509
11413.4268604
11414.8278925
11416.2264409
11417.623569
11419.0200097
11420.4162187
11421.8124271
11423.2088412
11424.6056202
11426.003053
11427.4014998
11428.8014209
11430.2033423
11431.6078455
11433.0155373
11434.4270195
11435.8428919
11437.2636653
11438.6898366
11440.1217167
11441.559593
11443.0034934
11444.4534081
11445.9090484
11447.3700797
11448.8359606
11450.3061338
11451.7799986
11453.2569664
11454.7365021
11456.2183138
11457.7007281
11459.1817759
11460.6624361
11462.1431951
11463.6243413
11465.1061267
11466.5887486
11468.0724074
11469.5573785
11471.0438522
11472.5320712
11474.0222011
11475.5146068
11477.0094741
11478.5070877
11480.0075581
11481.511044
11483.0175746
11484.5271919
11486.0398596
11487.5555472
11489.074183
11490.5957211
11492.1200879
11493.647408
11495.1747315
11496.6982289
11498.2182331
11499.735156
11501.24939
11502.761231
11504.2708525
11505.7784675
11507.284253
11508.7882581
11510.2905121
11511.7910229
11513.2899432
11514.787245
11516.2829996
11517.7773096
11519.2702933
11520.7620713
11522.2527658
11523.7425068
11525.2314575
11526.7198944
11528.2081975
11529.6966672
11531.185597
11532.6752532
11534.165826
11535.6574469
11537.1502098
11538.6441797
11540.1394003
11541.6358982
11543.1336841
11544.6327535
11546.133089
11547.6346605
11549.1374269
11550.6413374
11552.1463337
11553.6523526
11555.1593292
11556.667195
11558.1758846
11559.6853323
11561.1954752
11562.7062525
11564.2176059
11565.7294816
11567.2418256
11568.7545872
11570.267705
11571.7811057
11573.2946964
11574.8081644
11576.3211868
11577.8336725
11579.345583
11580.8569248
11582.3677319
11583.8780514
11585.3879388
11586.8974532
11588.4066546
11589.9156013
11591.4243476
11592.9329411
11594.4414229
11595.9498266
11597.4581782
11598.966498
11600.4748005
11601.9830969
11603.4913927
11604.999699
11606.5080385
11608.0164443
11609.5250841
11611.034057
11612.5433596
11614.0529572
11615.5628177
11617.0729108
11618.5832244
11620.093733
11621.6044034
11623.1152981
11624.6265825
11626.1383749
11627.6507942
11629.1639562
11630.6779695
11632.192942
11633.7089741
11635.2261572
11636.7445734
11638.2642901
11639.7853611
11641.3078247
11642.8317028
11644.3570059
11645.8837281
11647.4118558
11648.9413627
11650.4722183
11652.0043841
11653.537821
11655.0724858
11656.6083357
11658.1453267
11659.6834136
11661.2225509
11662.7626913
11664.3037847
11665.8457794
11667.3886166
11668.9322304
11670.4765475
11672.0214857
11673.5669571
11675.1128676
11676.6591174
11678.2054943
11679.751451
11681.2967814
11682.8413886
11684.3852332
11685.9282955
11687.4705782
11689.012101
11690.5528977
11692.0930151
11693.6325125
11695.1714626
11696.7099525
11698.2480819
11699.7859596
11701.3236989
11702.8614428
11704.3997486
11705.9388553
11707.4789211
11709.0200181
11710.5621842
11712.1054308
11713.6497426
11715.1950852
11716.7414085
11718.2886491
11719.8367337
11721.385584
11722.9351224
11724.4852745
11726.0359759
11727.5871746
11729.1388388
11730.6909525
11732.2435219
11733.7965704
11735.3501363
11736.904266
11738.4590111
11740.0144161
11741.5705167
11743.1273298
11744.6848498
11746.2430414
11747.8018387
11749.3611355
11750.920792
11752.4805557
11754.0398275
11755.5983584
11757.1559975
11758.7126854
11760.2684256
11761.8232782
11763.37736
11764.930831
11766.4838976
11768.036789
11769.5901162
11771.1443451
11772.6997812
11774.2566267
11775.8150395
11777.3751262
11778.9369543
11780.5005597
11782.0659576
11783.6331524
11785.2021407
11786.7729281
11788.345534
11789.9199995
11791.4963936
11793.0748145
11794.6553898
11796.2382702
11797.8236259
11799.4116314
11801.0024559
11802.5962474
11804.1931156
11805.7931162
11807.3962373
11809.002386
11810.6113832
11812.22296
11813.8367554
11815.4523288
11817.0691587
11818.6866939
11820.3042134
11821.9204601
11823.5348706
11825.1469177
11826.7562176
11828.3625062
11829.9656505
11831.56566
11833.16269
11834.7570437
11836.3491644
11837.9396233
11839.5291127
11841.1185171
11842.7093521
11844.3024247
11845.8986222
11847.4987479
11849.103522
11850.7135764
11852.3294351
11853.9514914
11855.579997
11857.2150568
11858.8566257
11860.5045124
11862.1583882
11863.8178015
11865.4821953
11867.1509304
11868.8233105
11870.4986092
11872.1760965
11873.8550568
11875.5348281
11877.2147026
11878.893423
11880.5705189
11882.2456089
11883.9184509
11885.5888764
11887.256774
11888.9220792
11890.5847521
11892.2447628
11893.9020754
11895.5566387
11897.2083732
11898.8571692
11900.5028848
11902.1453501
11903.7843773
11905.4197662
11907.0513239
11908.6788804
11910.3023016
11911.9215106
11913.5365002
11915.1473512
11916.7542396
11918.3574484
11919.9573696
11921.5545047
11923.1494551
11924.7429119
11926.3356384
11927.9288174
11929.5237391
11931.1212629
11932.7222154
11934.3274198
11935.9376312
11937.5535434
11939.1757802
11940.8048766
11942.4412748
11944.0853167
11945.7372412
11947.3971835
11949.0651783
11950.7411645
11952.4249925
11954.1164326
11955.8151852
11957.5208905
11959.2331395
11960.9514845
11962.6754481
11964.4045341
11966.1382356
11967.8760424
11969.6174488
11971.3619586
11973.1090899
11974.8583755
11976.609372
11978.3616614
11980.114854
11981.8686114
11983.6224788
11985.3755921
11987.1276916
11988.8786349
11990.628391
11992.3769985
11994.1245601
11995.8712399
11997.6172526
11999.3628519
12001.1083056
12002.8544072
12004.601651
12006.3503993
12008.1009012
12009.8533705
12011.6079829
12013.3648743
12015.1241567
12016.8859164
12018.6502203
12020.4171168
12022.1866436
12023.958827
12025.7336883
12027.5112447
12029.2915103
12031.0744973
12032.8602158
12034.648673
12036.4398698
12038.2337996
12040.0304441
12041.8297791
12043.6317623
12045.4363427
12047.2434589
12049.0530417
12050.8650195
12052.6793239
12054.4958933
12056.3146819
12058.1356645
12059.9588429
12061.784247
12063.6119382
12065.4420075
12067.2745698
12069.1097571
12070.9477064
12072.7885539
12074.6324032
12076.4793286
12078.3293494
12080.18242
12082.0384237
12083.8971657
12085.7583828
12087.6217478
12089.486894
12091.3534406
12093.2210272
12095.0893492
12096.9582017
12098.8275181
12100.6974057
12102.5681743
12104.4403521
12106.3146902
12108.1921475
12110.0738597
12111.9610913
12113.8551695
12115.7574095
12117.6690221
12119.5910327
12121.524181
12123.468856
12125.4250293
12127.3922141
12129.3694597
12131.3553581
12133.3480987
12135.3455361
12137.3453427
12139.3452493
12141.3412658
12143.3314486
12145.314002
12147.287741
12149.2520788
12151.2070796
12153.1535142
12155.0928503
12157.0272198
12158.9592459
12160.8935012
12162.8334627
12164.7826962
12166.7445853
12168.7225619
12170.7197761
12172.7390151
12174.7826117
12176.8523738
12178.9495422
12181.0747808
12183.2281922
12185.4093523
12187.6173673
12189.8509357
12192.108416
12194.3879058
12196.6872913
12199.0043101
12201.3365941
12203.6816979
12206.0371208
12208.400319
12210.7687029
12213.1397055
12215.5107968
12217.8775065
12220.2374799
12222.5881696
12224.927221
12227.2523939
12229.5615985
12231.8529867
12234.1250063
12236.3764622
12238.6065778
12240.8150438
12243.0020566
12245.1683404
12247.315154
12249.4442799
12251.5579876
12253.6589864
12255.7503621
12257.8355006
12259.9178933
12262.0028925
12264.0941378
12266.1951812
12268.3092067
12270.4394362
12272.5888979
12274.7603921
12276.9565106
12279.1795975
12281.4317475
12283.7147854
12286.030234
12288.3792865
12290.7627513
12293.1810154
12295.6339924
12298.1210856
12300.6411568
12303.1925327
12305.7729977
12308.3798269
12311.0098209
12313.659354
12316.3244186
12319.0006779
12321.6835122
12324.3687515
12327.049675
12329.7205386
12332.3770834
12335.015649
12337.6332886
12340.2283273
12342.8007051
12345.352319
12347.8872883
12350.4121564
12352.9369109
12355.4754677
12358.0380551
12360.6363711
12363.2818166
12365.9838946
12368.7493838
12371.5813195
12374.4782929
12377.4342123
12380.4385345
12383.4769441
12386.5324407
12389.5901753
12392.6242412
12395.6215842
12398.5718441
12401.4707309
12404.319707
12407.1260627
12409.9024784
12412.6650982
12415.4396109
12418.2425934
12421.0896169
12423.9915431
12426.9550552
12429.9811522
12433.0650123
12436.1968517
12439.3631887
12442.5486835
12445.7462587
12448.9597197
12452.1930599
12455.4499117
12458.7336827
12462.0474872
12465.394117
12468.7761243
12472.1958434
12475.655434
12479.156927
12482.7022033
12486.2929321
12489.9305469
12493.6162701
12497.3511505
12501.1360169
12504.9714602
12508.8577447
12512.7949476
12516.7827868
12520.82078
12524.9080929
12529.0437042
12533.226379
12537.4546471
12541.7268551
12546.0412098
12550.3958928
12554.7892124
12559.2195375
12563.6854202
12568.1856138
12572.7192218
12577.2857466
12581.8852496
12586.5182766
12591.1859486
12595.8897885
12600.6318939
12605.4148074
12610.2416067
12615.1155543
12620.0402153
12625.0190885
12630.0556869
12635.153235
12640.3147233
12645.5426435
12650.8391869
12656.2058723
12661.6440156
12667.1543921
12672.7379693
12678.3957874
12684.1296846
12689.9423599
12695.838185
12701.8235137
12707.9073004
12714.1015968
12720.4220363
12726.8883147
12733.524132
12740.3574433
12747.4202668
12754.7477244
12762.1837144
12769.4805464
12776.6188082
12783.6097256
12790.4410407
12797.1294635
12803.6893184
12810.0899542
12816.4218213
12822.5792014
12828.7061511
12834.69421
12840.6314919
12846.5123374
12852.3055924
12858.0990277
12863.821889
12869.5362131
12875.230854
12880.9032194
12886.5777644
12892.2445277
12897.9096062
12903.5771584
12909.2478677
12914.9252625
12920.6146159
12926.3263899
12932.0731494
12937.8726895
12943.7459559
12949.6551937
12955.514213
12961.3162201
12967.0376912
12972.698896
12978.2595191
12983.7635086
12989.1584366
12994.5022866
12999.7415667
13004.9308296
13010.039411
13015.0833928
13020.0914632
13025.014116
13029.9356466
13034.783507
13039.6200811
13044.4316656
13049.2078756
13053.9868171
13058.7456533
13063.4952266
13068.2464767
13072.9921748
13077.7365344
13082.4828437
13087.2312634
13091.9829755
13096.740356
13101.5085189
13106.2933665
13111.1025761
13115.9444931
13120.8299485
13125.7708891
13130.7814326
13135.8760523
13141.0709259
13146.3823633
13151.8279418
13157.4244445
13163.1885758
13169.1348708
13175.2764555
13181.6228724
13188.1806459
13194.9511362
13201.9311423
13209.1110893
13216.4760087
13224.0041672
13231.669041
13239.4388575
13247.2791122
13255.1297162
13262.9702582
13270.811623
13278.6638924
13286.5532258
13294.5213497
13302.6254454
13310.9376948
13319.5447612
13328.5481708
13338.0655394
13348.2328048
13359.2076676
13371.1744042
13384.3501216
13398.992405
13415.4078521
13433.9605805
13455.0787173
13479.2546787
13507.0243617
13538.5524578
13569.5284307
13598.2638226
13624.7960697
13649.2250022
13671.7290169
13692.4244925
13711.6079235
13729.256138
13745.860066
13761.1111158
13775.7469489
13789.1912603
13802.2616185
13814.4265554
13826.1663634
13837.4452483
13848.0677618
13858.6202484
13868.4308368
13878.216806
13887.5144683
13896.5205901
13905.4109025
13913.8031313
13922.2009853
13930.2177384
13938.0744722
13945.7990885
13953.2128792
13960.6294428
13967.7535592
13974.8506047
13981.7769985
13988.6042366
13995.3823478
14002.0181121
14008.6589032
14015.2068902
14021.719677
14028.2233442
14034.6798222
14041.1332527
14047.5832781
14054.0224698
14060.4616295
14066.9063689
14073.3564744
14079.8167406
14086.2947922
14092.8070033
14099.3414847
14105.854856
14112.3278292
14118.7630572
14125.145342
14131.4724144
14137.7387569
14143.9444001
14150.0755659
14156.1531854
14162.1471289
14168.0905649
14173.9595218
14179.7708302
14185.5282538
14191.2247863
14196.8820146
14202.4866079
14208.0639621
14213.5937311
14219.116322
14224.5948783
14230.0746873
14235.5316673
14240.982795
14246.4286613
14251.8714165
14257.3127429
14262.7553033
14268.2000077
14273.6486966
14279.1049065
14284.5746716
14290.0664033
14295.5913274
14301.1641106
14306.8036297
14312.5285356
14318.249823
14323.9102879
14329.499856
14335.010374
14340.4380249
14345.7762836
14351.0277662
14356.1859239
14361.2620864
14366.2441411
14371.1578272
14375.9765935
14380.7481812
14385.424724
14390.0761087
14394.6373161
14399.1908457
14403.6652714
14408.1401878
14412.5578907
14416.9697819
14421.3556881
14425.723537
14430.0892064
14434.4379922
14438.786796
14443.1317315
14447.4738275
14451.8168907
14456.160893
14460.5060435
14464.8539312
14469.2070825
14473.5691477
14477.9442807
14482.3381082
14486.7572399
14491.2098552
14495.704633
14500.2514014
14504.8603477
14509.5427915
14514.3103905
14519.1267292
14523.9026501
14528.631685
14533.3167547
14537.9624374
14542.5731363
14547.1566561
14551.7157278
14556.2598886
14560.7892413
14565.3118899
14569.8262418
14574.3367244
14578.8410417
14583.3390759
14587.8288859
14592.3065566
14596.7708299
14601.2161406
14605.6412716
14610.0417862
14614.4158539
14618.7618535
14623.0774666
14627.3639812
14631.6195815
14635.8468827
14640.046692
14644.2206804
14648.3722379
14652.5031341
14656.6170976
14660.7167234
14664.8050924
14668.8847111
14672.9594205
14677.0294159
14681.0986813
14685.1669345
14689.2359218
14693.3066329
14697.3812615
14701.4572763
14705.5296284
14709.5962549
14713.6556964
14717.7061635
14721.7476434
14725.7803627
14729.803416
14733.8192818
14737.8282248
14741.8307908
14745.8302863
14749.826035
14753.8198857
14757.8136265
14761.8068656
14765.8007221
14769.7960052
14773.7937547
14777.7958444
14781.8050258
14785.8256241
14789.8631064
14793.9247406
14798.0193277
14802.1581353
14806.3547001
14810.625443
14814.9856772
14819.3532951
14823.6635018
14827.91227
14832.0983291
14836.2234383
14840.2910625
14844.306873
14848.2774257
14852.2105387
14856.1139171
14859.9956118
14863.8624629
14867.7208856
14871.5752425
14875.4285576
14879.2826815
14883.1397798
14887.0042525
14890.881205
14894.7754165
14898.6920436
14902.6376682
14906.6188815
14910.6432223
14914.7194803
14918.8575008
14923.0684367
14927.365118
14931.7624179
14936.2775687
14940.846756
14945.3523961
14949.7852387
14954.1436105
14958.427458
14962.6383033
14966.7791829
14970.8546589
14974.8705874
14978.8342527
14982.7530303
14986.6393065
14990.4661832
14994.2360969
14997.9724925
15001.7070526
15005.4696597
15009.2685697
15013.1056872
15016.9738906
15020.8594388
15024.762359
15028.691219
15032.6566102
15036.6705554
15040.7428456
15044.8096179
15048.8359506
15052.8172116
15056.7507785
15060.619698
15064.3391653
15067.8983904
15071.3050088
15074.5862025
15077.7808452
15080.93326
15084.0981331
15087.3200357
15090.6270474
15094.0393222
15097.5679662
15101.2118766
15104.9589992
15108.7881746
15112.6719518
15116.5825782
15120.5225698
15124.5030475
15128.5378931
15132.6384403
15136.740474
15140.8005952
15144.8164562
15148.7872143
15152.719672
15156.5653524
15160.3057441
15163.9555875
15167.5479127
15171.1197548
15174.7219961
15178.3755486
15182.0973095
15185.8907168
15189.7483986
15193.6536265
15197.5839696
15201.539092
15205.5304573
15209.5724384
15213.681209
15217.8757014
15222.1784146
15226.5964702
15230.9857067
15235.2933645
15239.5131442
15243.6415231
15247.6759741
15251.6216204
15255.338768
15258.7953739
15262.002756
15265.0116737
15267.8880545
15270.7038139
15273.5489412
15276.483385
15279.5492574
15282.7734472
15286.1697593
15289.7349564
15293.450633
15297.2861586
15301.2025213
15305.1588193
15309.1558406
15313.2106448
15317.3452583
15321.5839601
15325.9542984
15330.484796
15335.0527697
15339.5217841
15343.8818504
15348.1281208
15352.2584794
15356.2806557
15360.0956112
15363.5753445
15366.7212545
15369.5772064
15372.2107779
15374.7059244
15377.1479745
15379.6490906
15382.2636938
15385.0435332
15388.0201406
15391.2099326
15394.61184
15398.2080592
15401.9673069
15405.8484639
15409.8046331
15413.7981183
15417.8390292
15421.9448752
15426.0787993
15430.1712603
15434.2137128
15438.1991542
15442.0361915
15445.7081519
15449.2231241
15452.6154965
15455.9325309
15459.2267053
15462.5681632
15465.9865058
15469.5101717
15473.152313
15476.9123838
15480.7770404
15484.7218282
15488.7147407
15492.73529
15496.7956442
15500.9115446
15505.1013592
15509.3868855
15513.7405975
15518.0450256
15522.281932
15526.448221
15530.5419534
15534.5711401
15538.4383798
15542.1175842
15545.6228567
15548.9992435
15552.3019747
15555.5923935
15558.9419474
15562.3793082
15565.9302992
15569.6059923
15573.4024475
15577.3032264
15581.2814668
15585.30378
15589.3546499
15593.4475706
15597.598851
15601.8269816
15606.1531647
15610.59805
15615.0628526
15619.4534385
15623.763539
15627.9905169
15632.1320407
15636.1992288
15640.0877106
15643.7481606
15647.1899142
15650.4577671
15653.6094101
15656.708655
15659.8357782
15663.0418947
15666.3634107
15669.8223355
15673.4288723
15677.1782884
15681.0527639
15685.0243861
15689.0584911
15693.1233833
15697.2252837
15701.3782906
15705.6000839
15709.9099164
15714.324355
15718.7456629
15723.1008896
15727.3856474
15731.5984075
15735.739008
15739.8115298
15743.7144559
15747.4337422
15750.9862687
15754.4169546
15757.779847
15761.1340167
15764.5456972
15768.0419778
15771.6468105
15775.3710807
15779.2118697
15783.1549122
15787.176555
15791.2469466
15795.3425599
15799.4712282
15803.6449109
15807.8778066
15812.1852595
15816.5791185
15820.9733152
15825.3136993
15829.5975277
15833.8244718
15837.9956267
15842.1182279
15846.1455323
15850.0386933
15853.8100418
15857.4903494
15861.1162257
15864.725875
15868.3665869
15872.0551633
15875.8060206
15879.6224053
15883.4984931
15887.42041
15891.3671405
15895.318548
15899.2376008
15903.099879
15906.8836827
15910.5735706
15914.1600894
15917.6407719
15921.0199566
15924.3077271
15927.518444
15930.6688984
15933.7763513
15936.8567222
15939.9231342
15942.9849207
15946.0488897
15949.1168132
15952.1869505
15955.2556302
15958.3179039
15961.3730612
15964.4237939
15967.4815948
15970.5591032
15973.6737771
15976.8455909
15980.0958288
15983.4445266
15986.9080078
15990.4967613
15994.2138086
15998.0538956
16002.0036361
16006.042633
16010.1453894
16014.2838313
16018.4437316
16022.6331477
16026.8616433
16031.1393642
16035.4731705
16039.8026073
16044.0970145
16048.3547744
16052.5761665
16056.763013
16060.910176
16064.9721267
16068.9538118
16072.8708084
16076.7477318
16080.6108271
16084.4936831
16088.4093052
16092.3672578
16096.3675596
16100.4021641
16104.4553113
16108.5082928
16112.522562
16116.4690871
16120.3158247
16124.0334852
16127.5969138
16130.9873103
16134.1941593
16137.2163445
16140.0627605
16142.752279
16145.3130425
16147.7810053
16150.1984239
16152.6160749
16155.0898667
16157.6535806
16160.3414076
16163.1813132
16166.1908799
16169.3767202
16172.7334484
16176.2439442
16179.8807807
16183.608561
16187.3866511
16191.1787549
16194.9335426
16198.6145368
16202.1987934
16205.6744975
16209.0404489
16212.3075316
16215.4974767
16218.6407215
16221.7756864
16224.9537508
16228.2029449
16231.5537086
16235.0292827
16238.643475
16242.4001139
16246.2923863
16250.3038023
16254.4101162
16258.5819026
16262.788048
16267.0191562
16271.2850899
16275.5973188
16279.967946
16284.4102798
16288.9390833
16293.5709841
16298.3246996
16303.2120166
16308.0879994
16312.88045
16317.5845966
16322.1974056
16326.7173903
16331.1446837
16335.4784732
16339.7316002
16343.7887911
16347.594575
16351.1510578
16354.494287
16357.670546
16360.7322315
16363.7313388
16366.7154077
16369.7378273
16372.8151613
16375.9611082
16379.1769691
16382.4533141
16385.7718525
16389.1089512
16392.4371472
16395.7174283
16398.9292156
16402.0570134
16405.0961607
16408.0544603
16410.9521107
16413.8196819
16416.7098759
16419.6632635
16422.7207847
16425.9175006
16429.2816386
16432.8293526
16436.5627084
16440.4694273
16444.5239594
16448.6902135
16452.9250363
16457.1952795
16461.513164
16465.8752158
16470.2136106
16474.5120779
16478.7376447
16482.8076303
16486.702431
16490.4179246
16493.9634284
16497.35735
16500.6217351
16503.7799699
16506.8551109
16509.8690428
16512.8425808
16515.7962795
16518.7555468
16521.7452037
16524.7862122
16527.9017513
16531.1162001
16534.4519813
16537.9275537
16541.5549918
16545.3378486
16549.269861
16553.3346637
16557.5066829
16561.7532941
16566.038727
16570.3562736
16574.7204027
16579.1490842
16583.6628313
16588.2862265
16593.0483628
16597.866053
16602.5986919
16607.2300392
16611.7509246
16616.1537418
16620.4095204
16624.2959692
16627.7628337
16630.7984583
16633.437027
16635.7391813
16637.7816423
16639.6529048
16641.4457942
16643.2789302
16645.2355896
16647.3837321
16649.777365
16652.4585533
16655.449653
16658.7525929
16662.349615
16666.2049653
16670.2684392
16674.4798169
16678.7737545
16683.117605
16687.5338975
16692.0511591
16696.7020982
16701.5240834
16706.5591023
16711.8492561
16717.1975896
16722.3905781
16727.4147349
16732.2637793
16736.9351156
16741.4275904
16745.7413001
16749.6010032
16752.9554617
16755.8178472
16758.2671483
16760.4077532
16762.3550549
16764.2233851
16766.1572411
16768.232517
16770.516867
16773.0547051
16775.8750512
16778.9873231
16782.3824835
16786.0365836
16789.9142616
16793.9730183
16798.1675272
16802.4534722
16806.7904352
16811.1514832
16815.5391328
16819.9581245
16824.4125692
16828.9044173
16833.4326386
16837.993242
16842.579394
16847.181615
16851.785038
16856.3876765
16860.9930948
16865.6107133
16870.2568176
16874.9433631
16879.6146651
16884.2440669
16888.81884
16893.3279703
16897.762788
16902.0757391
16906.1109263
16909.8276956
16913.2120037
16916.2788227
16919.0658232
16921.6259681
16924.0242059
16926.333346
16928.6352786
16931.0227362
16933.5446121
16936.2512925
16939.1817101
16942.3588519
16945.7902552
16949.4674743
16953.3675994
16957.4560988
16961.6902931
16966.0232368
16970.4079701
16974.8270013
16979.293496
16983.8227821
16988.4305021
16993.1325724
16997.9446342
17002.8811467
17007.8667215
17012.7884732
17017.6421136
17022.4281861
17027.1472902
17031.7999664
17036.3867542
17040.9088011
17045.3686523
17049.7374483
17053.919478
17057.9047989
17061.6986557
17065.3201434
17068.798398
17072.168506
17075.470854
17078.7489186
17082.0657636
17085.4545135
17088.9516812
17092.5841506
17096.3695463
17100.3138407
17104.4101264
17108.6395893
17112.973487
17117.3763981
17121.8130794
17126.2864235
17130.8104572
17135.4032928
17140.0848447
17144.8771393
17149.7980183
17154.7163757
17159.5524589
17164.3000214
17168.9550738
17173.5129438
17177.9839713
17182.2313497
17186.1924241
17189.8627156
17193.2783307
17196.490599
17199.5616201
17202.5583451
17205.5531429
17208.6215645
17211.8022191
17215.1323213
17218.6392066
17222.3364154
17226.224531
17230.2910666
17234.5118432
17238.85351
17243.2768089
17247.741282
17252.2410145
17256.7905189
17261.4078921
17266.1131
17270.9287363
17275.8732557
17280.8130743
17285.6686456
17290.4307267
17295.0919764
17299.6479236
17304.0362633
17308.0635294
17311.6883853
17314.9000734
17317.7176892
17320.1826635
17322.3499541
17324.2858844
17326.0651754
17327.7681081
17329.49333
17331.3247621
17333.3243694
17335.5479779
17338.0433253
17340.8421871
17343.9594512
17347.3924086
17351.1210602
17355.1101504
17359.3122093
17363.6714936
17368.1283129
17372.6319523
17377.1905562
17381.8243993
17386.5590201
17391.4223117
17396.4446831
17401.6602563
17407.1076016
17412.8306065
17418.8737773
17424.9974823
17430.9339988
17436.6689416
17442.1957287
17447.5102605
17452.6108441
17457.4991012