/*--------------------------------*- C++ -*----------------------------------*\
  =========                 |
  \\      /  F ield         | OpenFOAM: The Open Source CFD Toolbox
   \\    /   O peration     | Website:  https://openfoam.org
    \\  /    A nd           | Version:  6
     \\/     M anipulation  |
\*---------------------------------------------------------------------------*/
FoamFile
{
    version     2.0;
    format      ascii;
    class       volScalarField;
    location    "0.0004225";
    object      Qdot;
}
// * * * * * * * * * * * * * * * * * * * * * * * * * * * * * * * * * * * * * //

dimensions      [1 -1 -3 0 0 0 0];

internalField   nonuniform List<scalar> 
32000
(
53573.737512
53573.7719033
53573.7880241
53573.7965417
53573.8650501
53573.9244697
53574.0028551
53574.0725296
53574.1730452
53574.2737755
53574.3899864
53574.5434443
53574.6370211
53574.7761656
53574.8409225
53574.9293294
53575.0487423
53575.1501141
53575.2561953
53575.3587892
53575.4448076
53575.5207034
53575.575167
53575.6531893
53575.7811149
53575.8817283
53576.0299582
53576.2027925
53576.3884642
53576.6216277
53576.8322875
53577.1468713
53577.4351594
53577.7389383
53578.0591449
53578.3617404
53578.62843
53578.9401264
53579.3000454
53579.6721818
53580.062913
53580.4500036
53580.8206824
53581.2412424
53581.6826058
53582.086298
53582.4445439
53582.7135642
53582.9282241
53583.0848973
53583.1196513
53583.0862579
53582.9944616
53582.8409288
53582.5951015
53582.4244769
53582.2152316
53582.0015884
53581.8145591
53581.6216578
53581.4094727
53581.161774
53580.9424397
53580.7226809
53580.5136062
53580.2723325
53580.0362001
53579.8113354
53579.5581184
53579.33288
53579.1455771
53578.8880705
53578.6395545
53578.4787785
53578.2845941
53578.0850029
53577.9108854
53577.6816222
53577.4509038
53577.1781064
53576.9015236
53576.5415999
53576.2498425
53575.9397793
53575.6837768
53575.450668
53575.1979282
53574.9835579
53574.6740433
53574.5257483
53574.2843
53574.1420881
53573.8802349
53573.7863004
53573.7594203
53573.7776054
53573.8923253
53573.966682
53574.1969996
53574.5050123
53574.9169962
53575.2490484
53575.5636049
53575.792842
53576.0062633
53576.175478
53576.1509105
53576.011496
53575.8815933
53575.6669992
53575.3046288
53575.0826132
53574.6773679
53574.2731871
53573.830581
53573.2358909
53572.6621122
53571.9385998
53571.1982296
53570.3913451
53569.435973
53568.4182607
53567.3411163
53566.1907268
53565.1021593
53563.8851634
53562.8215893
53561.6038537
53560.4195725
53559.5044175
53558.571053
53557.7129325
53556.9368784
53556.1995707
53555.4073379
53554.5654751
53553.9256405
53553.2564121
53552.4900482
53551.9356718
53551.2930035
53550.8004851
53550.1320834
53549.7195693
53549.24518
53548.8091913
53548.4949084
53548.0587406
53547.7554779
53547.537478
53547.2649205
53546.9345837
53546.7043899
53546.4911559
53546.3489689
53546.1573021
53546.0748345
53545.8296114
53545.8298079
53545.6553906
53545.3538901
53545.2341779
53545.0922746
53544.6055537
53544.2155358
53543.7883716
53543.3293047
53542.885568
53542.3506745
53542.0198741
53541.5762666
53541.0664207
53540.8383586
53540.3733047
53539.9381221
53539.6053113
53539.1684962
53538.8198744
53538.57891
53538.1943781
53537.7966541
53537.3457275
53537.0500783
53536.7044981
53536.4431802
53536.0931002
53535.8294703
53535.4625111
53535.2354654
53535.2383453
53534.9719036
53535.0198922
53534.9899735
53534.9978685
53535.2041653
53535.1128591
53535.0812037
53534.9043634
53534.9163473
53534.6570517
53534.1151521
53533.8843786
53533.5905786
53533.0276404
53532.3682407
53531.7512723
53530.9466833
53530.2847659
53529.2930479
53528.5766961
53527.6722992
53526.9279326
53526.039135
53525.1098489
53524.3364261
53523.5821559
53522.6786382
53521.6247819
53520.9007141
53520.0841293
53519.4359405
53518.6276307
53518.103979
53517.5459134
53516.7995009
53515.970759
53515.4677112
53515.030906
53514.252859
53513.509229
53513.1323218
53512.4139604
53511.4032536
53510.9378695
53510.2862479
53509.4320098
53508.8121023
53508.3210175
53507.860063
53507.1070166
53506.6725907
53506.1514582
53505.8217594
53505.5077063
53504.9238583
53504.2759485
53504.0738401
53503.6047338
53503.0553934
53502.8523408
53502.2355101
53501.8053351
53501.5980703
53500.8705608
53500.546336
53500.3584045
53499.7937293
53499.3146489
53499.0720687
53498.583291
53498.1450127
53498.1948211
53498.1209717
53497.7757007
53497.9969649
53498.1484251
53498.1691105
53498.4362918
53498.6748319
53498.8052549
53499.3268905
53499.9689571
53500.3126709
53500.472471
53501.0765069
53501.971906
53502.6322837
53502.9464885
53503.4592247
53504.2467394
53504.5360908
53504.346941
53504.663746
53504.8546481
53504.6320812
53504.1753329
53503.7351393
53503.4132248
53503.006189
53502.3146668
53501.7277305
53501.3374618
53500.8459107
53500.0222962
53499.120245
53498.2578466
53497.8157358
53497.0128808
53495.8424137
53495.126379
53493.9750847
53493.0392662
53492.2339524
53491.0551871
53489.9752972
53489.4059741
53488.3858915
53487.44185
53486.7550142
53486.0548951
53485.6690334
53485.1057995
53484.1880013
53483.6038239
53483.2893274
53482.6053341
53482.4069622
53482.1009773
53481.3768224
53480.7582976
53480.7337094
53480.6938982
53480.1536918
53479.3831298
53479.3753041
53479.3671743
53479.0616784
53478.3721375
53477.8681063
53477.6114824
53477.2060173
53476.4449894
53475.5234791
53474.596441
53473.9299108
53473.4695479
53472.8505604
53471.717905
53470.5911874
53469.5644134
53468.3187527
53467.3646401
53466.6271317
53465.8102223
53464.4202729
53462.9471843
53461.8782122
53460.6970903
53458.986686
53457.3868308
53456.1664161
53454.6066021
53452.4990017
53450.6183792
53449.0551869
53447.1988587
53444.9108397
53442.6435773
53440.7698316
53438.8869788
53436.6269943
53434.8923697
53433.2162558
53431.4907361
53430.1426993
53428.494498
53426.4998487
53424.8426495
53423.3776682
53421.6549912
53420.0787347
53418.4817529
53417.034989
53415.4759546
53413.6050934
53411.7598955
53409.946117
53408.1676736
53406.4907885
53404.485481
53402.0195709
53399.1428682
53396.5335548
53394.0161996
53391.4767927
53387.797885
53383.6987799
53379.3363849
53375.2636381
53370.5383478
53365.0728396
53359.0156739
53352.665603
53345.4244126
53337.1860158
53328.5583093
53319.2746219
53309.1026624
53297.897875
53285.7411946
53273.1383017
53262.5919174
53253.4153289
53245.449722
53239.4899425
53235.414465
53232.1846344
53229.363788
53227.299493
53225.7719916
53224.6635996
53224.0306887
53223.612971
53223.3044471
53222.8348773
53222.4064709
53222.726541
53224.128055
53226.3014433
53228.6103677
53231.5747842
53235.5133318
53240.6654548
53246.4090649
53253.0976522
53259.9912015
53267.143199
53275.2239051
53284.4382203
53293.8765432
53302.5103931
53310.3843036
53317.9853882
53325.463649
53333.0847947
53340.6416077
53347.9243858
53355.3638165
53363.1004284
53369.7398341
53376.5700315
53384.6178431
53392.5612979
53400.2506452
53408.3207494
53417.2279567
53426.2696185
53435.1360422
53443.9741976
53453.3779823
53463.3473806
53473.8538408
53484.8389944
53495.9845939
53507.3153973
53518.5237262
53529.2849139
53539.6374971
53549.9433879
53559.9673469
53570.1023702
53580.0423422
53590.0725366
53599.7372957
53609.1179337
53618.9022712
53628.3758686
53637.5241358
53647.5896669
53657.3666601
53666.7550656
53676.1101446
53685.692145
53695.4764971
53705.4065349
53715.3603899
53724.974587
53734.1256813
53743.6554349
53753.3308763
53763.3856488
53773.6871476
53783.0626428
53792.8104831
53803.2024061
53813.2088702
53823.2915114
53833.305564
53843.0212795
53853.0842033
53863.5834987
53873.4343976
53882.0576216
53892.33021
53902.9903403
53913.4404457
53924.163506
53934.498663
53944.5350597
53954.4909795
53964.5208793
53975.0154886
53985.8655872
53996.299136
54006.6513857
54017.5243993
54028.1937734
54038.7649046
54049.0377445
54059.2437128
54069.3350554
54080.0325967
54091.0390693
54101.7300039
54112.2838067
54122.6181849
54132.633856
54143.1079157
54154.1302114
54165.2578412
54175.7236619
54185.8042724
54196.3770659
54207.1282786
54216.614097
54226.7579639
54237.5973006
54247.9530958
54258.0889255
54268.6204893
54279.2000839
54288.3142488
54297.4065056
54308.1618443
54318.6725448
54329.4499059
54340.1601322
54350.0387919
54360.049298
54370.5646245
54381.5139538
54391.9863318
54401.4232895
54411.7224735
54422.1023483
54432.4584858
54442.6264751
54452.5003013
54462.701304
54472.9336692
54483.1821311
54494.0725682
54504.9449072
54514.7463368
54524.5786673
54534.8889724
54545.8515162
54556.7331146
54566.4682538
54576.4978475
54587.0943568
54597.3077843
54607.7094638
54618.0859939
54628.5319402
54638.7479619
54648.9220594
54659.4262613
54669.780232
54680.352994
54689.4703522
54699.9125108
54710.5128727
54721.0144971
54731.3022918
54741.9726809
54752.9885112
54763.5414146
54773.3665315
54783.4805311
54793.994172
54804.5565035
54815.0699719
54825.6269877
54835.255053
54845.9484335
54856.0571587
54866.6830682
54877.2503729
54887.6291971
54897.7333034
54907.6342208
54918.2833069
54928.3793677
54938.5483584
54948.7437387
54959.1240878
54970.067516
54980.0470097
54990.0861302
55000.7174797
55010.7914959
55021.5891787
55032.1268242
55042.6183369
55053.2784736
55063.1807594
55072.2334113
55081.8253078
55091.8532024
55101.1554154
55111.8514478
55122.7754847
55133.2623376
55143.6519535
55153.8196815
55164.1858366
55174.9239741
55185.2254227
55196.0329837
55206.7326205
55217.797142
55228.2286156
55238.4518446
55248.5035295
55259.0914441
55269.595556
55280.2711508
55290.8906498
55301.1065891
55311.4775251
55322.022854
55332.7033421
55343.8113669
55354.4362118
55364.4584796
55374.4738517
55384.637497
55395.0462038
55405.2774419
55414.8630337
55424.0268496
55434.9158096
55446.1239103
55456.8576187
55467.6324738
55478.5554746
55489.5952774
55500.0755872
55510.1588518
55520.7030627
55531.052061
55541.0036083
55551.1921133
55561.5719976
55572.5931018
55583.4222182
55594.3064175
55605.0958404
55615.3429226
55625.5191903
55635.924329
55646.976493
55657.7897103
55667.3683221
55676.088538
55685.232289
55695.9036378
55706.9005497
55717.7319176
55728.8004852
55739.9563559
55750.5455226
55760.597004
55771.4285921
55782.1024706
55792.5967931
55802.9234025
55813.2755838
55823.5059791
55834.1293757
55844.5528956
55855.0434274
55865.5948441
55876.1397975
55886.8046919
55898.1538957
55908.8417928
55918.239361
55927.8081512
55938.2342532
55948.9835977
55960.0717229
55970.5622362
55979.8205625
55989.9742936
56001.131538
56011.9855274
56023.1877787
56033.2951578
56043.6228769
56054.7432987
56065.1737266
56076.1379148
56086.9770904
56097.6832409
56108.7341967
56119.300945
56129.372503
56140.1954315
56150.6937592
56161.3289543
56172.2197722
56183.0107849
56193.5338093
56204.0977312
56214.8313679
56225.9034308
56237.3520229
56248.0389474
56257.8818067
56267.6597184
56277.523409
56287.4937507
56297.5227867
56307.3223026
56318.1331701
56329.8745167
56341.4251503
56352.7906098
56362.5754927
56373.3345958
56385.0702962
56396.4700782
56407.3305859
56417.926315
56428.755599
56439.8947511
56451.3731249
56461.3302153
56470.475791
56481.6079812
56492.9307742
56503.5208581
56514.7539173
56526.1302346
56536.4437009
56546.1921135
56556.093122
56566.6017437
56578.2388711
56589.1272594
56600.6149447
56611.975842
56622.509121
56632.9458688
56643.5987673
56654.5124435
56665.4832095
56676.5964746
56687.8530411
56699.0812025
56710.0093639
56720.6610753
56731.12425
56741.1659897
56752.6143619
56765.1027559
56777.2421015
56788.7024613
56799.4097053
56810.6966023
56822.0428921
56833.4139672
56845.7011455
56857.4024624
56868.4766997
56879.2705331
56890.4651341
56902.383883
56913.4871917
56923.2391975
56933.1051738
56944.8981868
56956.3920105
56968.0470675
56979.7850263
56990.8696527
57001.2963891
57012.0338848
57023.1972366
57033.3643371
57044.7370657
57055.5304058
57066.1376406
57077.68576
57088.9312497
57099.0860641
57108.5345199
57118.1327086
57128.4643753
57138.9231512
57149.5075032
57160.0577115
57170.4260104
57181.2470034
57192.1282139
57203.2677063
57214.4179954
57225.4764354
57236.3819593
57247.19517
57258.018718
57269.1154853
57280.2932102
57291.544943
57302.6792841
57314.0095603
57325.4289989
57336.4217486
57347.5414646
57359.0039132
57370.7738495
57382.6858304
57394.5827806
57406.180352
57416.7243954
57428.4903604
57441.2490491
57453.5241688
57464.9293863
57476.3956776
57488.6771564
57501.1182229
57513.0557746
57525.0318122
57537.1081409
57548.6236199
57560.5751651
57572.3931129
57584.3189298
57596.939247
57608.9538405
57619.9948097
57631.0475275
57642.5595745
57654.0362784
57665.7461203
57677.0171665
57688.2403738
57699.5497857
57711.2982373
57723.2673683
57735.4778237
57747.4881313
57759.3278826
57771.230162
57782.7454897
57793.9828795
57805.3206648
57817.3058907
57829.5302891
57841.7546843
57853.6973362
57866.6304227
57879.4423898
57891.6104921
57903.1725944
57914.2743409
57925.5204613
57937.2930465
57949.6994933
57962.3961739
57975.2573983
57988.192365
58000.7065269
58012.8962128
58024.8965918
58036.4058976
58047.2721315
58058.7259
58072.2797012
58085.4117065
58098.4918676
58111.0075036
58123.3609748
58135.9952243
58149.0203307
58162.5713835
58175.2200744
58186.8120272
58198.291704
58210.4178132
58222.7279335
58235.196531
58247.9295272
58260.6160606
58272.9740822
58284.929816
58296.8270567
58309.1006201
58321.4358406
58333.9071127
58346.007362
58358.6283905
58371.4720155
58385.5835836
58399.2811075
58412.4563025
58425.7405444
58439.3392757
58453.5525055
58467.0515146
58479.5988611
58492.2623747
58504.4956621
58517.9101172
58532.5609318
58546.5214683
58559.9971684
58573.3877976
58587.4860984
58601.5956949
58614.6968046
58627.0794604
58639.3309575
58651.6561948
58664.8424062
58678.6407826
58689.0657491
58699.6465644
58713.0851503
58726.3969383
58739.7861361
58753.2702028
58766.8990811
58780.8435258
58794.842624
58809.4298845
58824.1907114
58839.5140526
58854.4932947
58868.6304316
58884.9014155
58901.8445641
58918.7269523
58935.1958151
58951.6605759
58968.4020521
58985.2557825
59002.0065528
59018.3010461
59034.0299415
59050.1291088
59066.5912383
59083.0559623
59099.3946581
59115.5081986
59131.8301179
59148.1928702
59164.2596197
59179.9095544
59195.1915863
59210.2906398
59225.2332352
59240.3147633
59255.9583921
59271.3683549
59285.4301552
59299.2188101
59313.952485
59327.347928
59338.8823241
59348.8556314
59359.2539915
59373.8308808
59388.4254539
59402.8834778
59416.6481945
59431.485773
59447.7340082
59463.8667036
59479.3640283
59494.9113539
59510.3171212
59526.6310541
59542.9488554
59559.5580821
59577.433086
59595.3786764
59613.3872285
59631.8748601
59650.472248
59668.5354219
59686.5741417
59705.6793666
59724.40308
59739.9432274
59752.9714878
59771.258249
59789.9332059
59808.3230004
59827.8695902
59847.2463477
59866.7936343
59885.2942059
59902.5048018
59919.5641515
59938.2206821
59956.2954088
59973.3139342
59990.4781812
60009.4193026
60028.700894
60047.9109805
60066.7623706
60085.5601548
60105.0282833
60125.4817232
60147.040945
60169.3132205
60190.9563831
60212.8215947
60234.1184429
60253.7382446
60272.297967
60290.4779259
60308.8404624
60327.2935862
60345.7186837
60361.9550042
60380.9318332
60400.6027475
60420.350885
60439.7733753
60459.8588823
60481.8822326
60503.9152928
60525.911689
60548.9184416
60571.7058766
60594.0557896
60616.7874802
60639.6386303
60662.5589626
60685.784037
60709.2438719
60732.9199399
60756.7788208
60780.8455854
60805.1211545
60829.7112074
60854.6214559
60880.0197971
60905.8623053
60932.3590908
60959.6563653
60987.3906057
61014.7652675
61042.2655888
61068.7567152
61095.0202482
61122.1836426
61150.5164518
61179.3110583
61208.4132686
61238.1950238
61268.5318784
61296.889428
61327.3728499
61358.3812688
61389.5307866
61422.6326156
61455.9109031
61489.0694809
61522.3437353
61555.9008791
61589.4753495
61622.8614945
61656.8198678
61691.3211576
61726.0529165
61760.9895265
61796.3496671
61832.1456926
61868.4259778
61905.2900786
61942.8272115
61981.130237
62019.013271
62056.058877
62092.7535924
62129.8211866
62167.8561654
62206.7514518
62246.4435932
62287.2618978
62328.9363986
62371.722884
62415.3894438
62459.9614345
62505.1571684
62548.8387504
62592.0454975
62640.4014367
62690.5431284
62742.0906257
62795.0173649
62849.6566273
62905.0372908
62959.423169
63012.9813104
63065.5571252
63116.8161908
63166.5304684
63213.8547635
63261.2598678
63308.2878227
63353.9881185
63399.4713242
63444.2876158
63488.3709207
63532.1189005
63574.8175484
63617.3865685
63659.4408912
63701.5517243
63743.5134469
63785.7846413
63827.3347196
63867.1037033
63905.3535324
63945.7428746
63984.9021695
64026.6413619
64068.6398554
64110.9066277
64153.730636
64197.0538764
64240.9826357
64284.7292535
64327.8111443
64370.5125921
64412.8169381
64454.6958969
64496.0016816
64536.1427029
64574.4788299
64610.8223717
64647.425108
64684.5669907
64721.0168245
64757.1440933
64792.806294
64827.679159
64862.7985559
64897.3696654
64931.7994531
64965.7646058
64998.9803199
65031.865014
65064.5814783
65097.7614535
65130.9295843
65161.3824863
65195.0933485
65229.3471435
65264.7317505
65299.8515246
65334.3141149
65368.4591713
65403.1553753
65438.509026
65474.2574134
65510.2882651
65546.1632891
65582.9398016
65618.5326436
65654.1499651
65692.1909883
65731.3942648
65773.1707428
65816.0214333
65858.5907922
65901.7078199
65949.0348075
65998.2451131
66048.5718865
66099.3083411
66150.2945086
66205.3056465
66262.1434291
66319.7929075
66377.7848962
66435.8655643
66494.1713913
66552.6691345
66610.9280437
66668.9512294
66727.5093795
66786.9517595
66847.3738881
66909.3270671
66973.6410173
67041.4091998
67113.223789
67189.0486744
67271.120596
67361.1704842
67457.9800742
67565.3272648
67687.5173081
67826.9883836
67986.7483207
68170.7400342
68382.1526874
68623.3799819
68860.2309224
69078.9665738
69282.082078
69468.7942937
69640.0440078
69797.2600264
69942.3485115
70075.4568078
70199.1802174
70313.6428612
70423.7689712
70524.7519617
70622.9443677
70713.9564513
70801.8421634
70886.1480616
70965.2940994
71043.7669459
71116.4757711
71188.4277619
71256.6038155
71323.0063894
71388.1658358
71449.0825382
71510.2224695
71568.4846297
71625.5776674
71681.8668295
71735.7306436
71789.5526348
71840.7720027
71891.4361373
71941.1555231
71990.2489686
72038.9655403
72086.1641698
72132.3494618
72177.4442181
72222.684789
72264.1873967
72309.999922
72356.6284207
72403.0412879
72448.7110184
72493.9563775
72539.1274645
72583.7331082
72629.1628286
72675.2554314
72721.7570388
72768.5069907
72814.9922844
72861.9857282
72909.1489451
72955.4965147
73001.6871304
73046.5289307
73090.1286981
73133.0684394
73176.0703134
73218.7318401
73261.1633483
73303.0307063
73344.9650872
73386.4759267
73427.3792655
73467.9142051
73507.7280423
73546.9616873
73585.567857
73623.7232524
73660.9710041
73698.6460027
73736.518737
73774.1345574
73811.7842809
73849.5548442
73887.2211114
73924.9261981
73962.6583995
74000.5968958
74038.8104765
74076.8232175
74114.0185779
74149.9721549
74186.2703749
74224.0788052
74262.0889434
74300.249537
74338.60361
74374.789267
74411.8631867
74448.6533474
74484.5435269
74519.7475806
74555.2173881
74587.656196
74620.3015834
74653.9805284
74686.8799968
74718.9300093
74749.8018641
74780.3636592
74809.5356688
74839.2335775
74869.157966
74899.6942404
74930.0320272
74960.2785445
74990.0676583
75019.7155192
75048.8591143
75077.2840368
75106.5468963
75136.2355532
75165.7391536
75195.1092825
75224.2576782
75252.8371294
75280.9662397
75309.9706621
75340.3269889
75371.0230733
75403.0420578
75434.4244576
75464.7214169
75493.9388404
75522.5626311
75551.826423
75585.4161086
75619.1442787
75653.5034881
75686.592368
75718.1315313
75749.1926232
75779.5932124
75809.7734263
75839.1909128
75869.1103627
75899.4616684
75928.9827008
75959.0434744
75987.3886908
76011.8156585
76036.8789297
76067.181772
76094.1659413
76122.1371561
76150.5442645
76176.2883124
76203.6212135
76231.3961381
76259.4387017
76288.0810317
76316.9359478
76345.574724
76372.9569926
76399.3492567
76425.9562915
76453.0423421
76480.2657407
76507.6179728
76534.6123849
76561.3506475
76587.8826886
76614.2247604
76640.3403041
76666.3345968
76692.4281312
76718.8348765
76745.2200335
76771.2331559
76797.0036263
76823.0719255
76849.2274412
76875.310371
76901.0666437
76926.3918379
76951.6340784
76976.9538316
77002.5381468
77028.1049984
77053.577486
77078.5960649
77103.0980956
77127.2466893
77152.1185994
77174.8288016
77198.5223325
77222.4128733
77245.4135642
77268.7118821
77292.8512864
77315.913176
77340.8895764
77366.700516
77393.2348231
77419.8013157
77446.4578845
77472.9730983
77500.033813
77527.9518268
77556.9945911
77586.2083438
77616.3858734
77645.0700462
77671.3794864
77694.8224894
77720.5378063
77747.0002909
77773.6218351
77800.1504048
77826.4519347
77852.7389735
77877.392799
77901.2036553
77924.6088755
77947.8720612
77970.5416773
77995.9442309
78016.1408453
78029.1812963
78047.1415929
78071.8054102
78095.9147611
78121.5215923
78149.0595436
78176.173219
78204.3920675
78230.8642895
78259.5643727
78289.0580428
78319.4339808
78348.8795269
78378.243299
78405.7449921
78432.6696398
78458.3671629
78486.2517553
78513.8891456
78540.8755296
78567.0112967
78592.9438326
78617.2943212
78640.9035676
78663.5737457
78685.7345576
78708.9101038
78732.1847467
78755.6879801
78779.7909947
78801.9491611
78825.8721017
78850.2279838
78868.0890689
78885.0244687
78908.1411353
78933.8412349
78957.9655903
78981.1733534
79005.2152276
79028.2260723
79051.7670881
79073.9336004
79095.483536
79116.2072049
79136.5398402
79155.8605945
79174.7272784
79192.7226121
79211.4630103
79230.6343952
79250.3004108
79270.9104966
79292.4873132
79314.5541141
79337.1014958
79360.844032
79385.1155756
79408.7056805
79433.2267924
79457.4623745
79483.0720799
79509.4717103
79531.5981079
79554.2356794
79576.6384317
79599.3056635
79622.0469816
79643.8712347
79664.5207158
79685.4016307
79706.5807925
79727.8062744
79747.7839228
79768.739675
79791.4708785
79814.5588399
79838.095351
79860.6573634
79883.5946184
79907.0878458
79931.5246072
79956.1694123
79981.8575213
80008.2903858
80035.3366007
80061.4889061
80086.9041346
80111.7391868
80136.3931067
80161.0912388
80185.3740923
80208.0442592
80228.5787337
80246.5417004
80262.375753
80277.6435892
80292.9729825
80308.8360321
80325.4368122
80342.4917894
80360.3272423
80379.9078373
80398.9556597
80419.3201756
80441.0979498
80464.3885662
80488.0885177
80512.7130951
80536.4829448
80558.9308907
80584.0984719
80610.3169516
80637.268552
80662.9638211
80688.3712145
80712.2813747
80734.6158785
80759.5833149
80784.0739142
80806.1408387
80824.6925698
80841.9166902
80856.5820804
80868.5276423
80880.6108787
80893.0379432
80906.2629787
80920.1752204
80935.5207908
80951.7720289
80968.7684218
80986.6440444
81006.3484213
81028.3027076
81050.9183829
81075.2237061
81100.8244281
81126.7629761
81152.5888276
81178.2224214
81202.6906221
81226.6196333
81250.1621942
81272.9088278
81294.8286997
81315.3770343
81335.1794062
81354.2325447
81372.6864505
81391.5348738
81410.4809691
81430.3881649
81451.6428364
81471.1398422
81492.6574133
81514.9851239
81537.7325125
81560.3786633
81582.5920501
81603.7262765
81625.6994817
81649.890841
81675.4840544
81700.9591903
81723.680088
81741.0461522
81759.5561763
81781.5720629
81803.0328566
81822.8102177
81841.5624337
81859.8841456
81877.176345
81894.4958236
81912.9929366
81930.4334633
81950.567929
81972.4194653
81994.4091906
82016.1375528
82038.3872591
82060.84968
82083.2930561
82106.7514187
82130.3669682
82156.1317461
82183.6830755
82213.0408779
82241.6325053
82268.4430868
82293.2082677
82315.8688767
82338.7340096
82362.5121786
82385.4854184
82407.2700917
82425.1636427
82441.9980113
82458.7591135
82475.1022501
82491.1918259
82507.1242741
82524.2614359
82542.1862946
82555.9901589
82568.959301
82588.8456866
82614.0737983
82637.0573637
82659.5437843
82681.746235
82704.7115134
82728.9224951
82756.7226896
82785.1214818
82810.2325446
82831.5047359
82854.8310572
82879.6654922
82905.5619361
82930.6294414
82952.2896982
82971.9700486
82991.4441776
83013.5280717
83035.3344039
83055.6537592
83074.0817451
83091.3582461
83109.5757583
83130.5552594
83153.446041
83177.4141921
83201.6087183
83224.5744123
83247.466864
83269.3388469
83291.6591451
83315.3594482
83339.6341393
83364.62943
83389.8861431
83413.6347612
83431.4928259
83450.9258114
83475.410242
83498.895332
83520.2107242
83539.807838
83560.7557356
83579.4483167
83599.3290614
83620.6503
83641.227861
83660.4688342
83681.4309102
83702.0549202
83722.7881696
83743.0424661
83763.125983
83784.6250319
83805.7151987
83822.9821376
83835.7992494
83850.7326822
83869.5194766
83888.4602144
83906.8823353
83924.9193853
83941.1469115
83955.0123306
83966.3405371
83978.5081398
83995.2909078
84011.8481774
84028.0125999
84043.6668813
84058.9572489
84073.1742583
84088.2636627
84103.8203219
84119.115775
84134.3983719
84149.8691843
84164.4201893
84180.1122764
84197.1506659
84215.4963529
84234.5756919
84254.1229911
84273.043038
84292.5436404
84314.3436883
84336.1246029
84356.1105746
84378.3362444
84402.6604781
84424.1774688
84446.4075765
84471.4614585
84493.3290295
84516.8427427
84540.4859103
84564.1255481
84586.8726166
84608.9598103
84631.259316
84652.9471137
84673.2310581
84692.4237482
84711.2385586
84730.2601142
84749.0686225
84767.6950854
84787.1258973
84807.206755
84826.9895147
84846.8956317
84867.4461046
84888.7929185
84910.4151157
84931.1973158
84949.4764343
84963.3283151
84973.2907985
84984.2610858
84996.9632021
85009.2221462
85020.5080954
85031.4355056
85042.136422
85052.7357003
85063.5207363
85074.8458093
85085.9118521
85096.9463022
85107.2637133
85118.288537
85131.2243537
85150.91375
85169.4285376
85188.5131408
85208.466655
85228.033089
85247.9651721
85267.3673233
85285.9836419
85303.4167506
85320.46807
85337.9722888
85354.5273099
85371.9156226
85387.9348189
85403.996548
85418.4024889
85432.0747199
85447.2747874
85465.6633967
85486.4445311
85508.6227752
85530.3178491
85550.7417847
85570.9236008
85593.0069174
85617.045624
85641.3672933
85664.6906543
85686.7522114
85708.6845202
85732.3715654
85759.4149703
85784.7478998
85811.1939811
85838.5836545
85865.6766704
85889.1042929
85915.2422895
85942.5462493
85966.469819
85984.2232682
85996.9704155
86013.3196594
86035.1694326
86057.9551925
86078.0884796
86096.7959451
86110.8033176
86125.3359488
86140.4607908
86157.1832827
86173.5332704
86188.0327772
86200.9503183
86216.1645365
86230.9524404
86245.5473022
86261.0746414
86277.7735213
86294.7276503
86311.0874746
86325.5427661
86339.7316343
86350.5398669
86358.7730165
86365.9106261
86378.2194065
86390.8548496
86407.4441978
86423.4217301
86439.2679516
86455.9552183
86474.4203743
86493.1933609
86512.726855
86533.1755378
86554.8788535
86579.718738
86606.9816788
86633.4848033
86658.8735437
86682.4877248
86704.7540994
86726.4218238
86747.3310187
86767.9001166
86787.9781234
86806.7661933
86823.5591497
86838.0914664
86851.0809332
86863.8462889
86877.4234301
86889.3831969
86903.1579245
86917.2745383
86931.5558358
86946.1232078
86961.2237617
86977.882045
86996.2171289
87014.2214618
87031.6551011
87050.1416134
87069.0307721
87087.4929179
87104.538235
87121.5508649
87140.2655187
87160.8262608
87182.7496382
87205.077295
87228.098261
87251.4728843
87273.7724493
87295.6556321
87317.8024655
87339.8239248
87361.4645211
87381.4292768
87395.8644759
87405.1913232
87414.9485211
87425.2963404
87435.0985543
87443.3135898
87450.0078559
87455.6585295
87462.4108311
87469.50757
87475.6579027
87483.814704
87494.5398006
87507.3852098
87522.2529066
87538.9224934
87557.1449383
87575.8151612
87595.6889071
87617.1485699
87639.3092912
87660.3689578
87681.6552087
87704.1279478
87728.4821392
87753.8922417
87781.7828958
87808.4602886
87838.2175881
87864.1658624
87890.1139601
87913.0425869
87936.9669247
87959.7616775
87978.7135209
87995.4705223
88007.9363072
88016.6710784
88025.23508
88032.8241889
88040.9152363
88049.1530832
88055.3331536
88058.7153906
88060.9621427
88066.3401701
88074.855918
88085.3413569
88096.4093561
88107.4144782
88120.2774904
88139.9039452
88164.5338393
88189.4028211
88213.2095423
88237.211861
88259.935086
88281.4853517
88303.9989037
88327.7473038
88354.7902634
88381.9312091
88407.1830942
88428.8707969
88449.5139765
88472.6061234
88494.8889691
88518.0610367
88541.4491453
88565.2575499
88589.1837018
88613.0037041
88636.4339273
88656.2826724
88675.0259711
88694.0224819
88711.8179605
88727.9271109
88741.8025469
88753.5306205
88763.5840671
88771.9530184
88779.117819
88785.4809137
88792.9333428
88801.6220925
88810.7296633
88822.728611
88836.6393405
88852.3359574
88869.12147
88887.4553698
88906.2305538
88925.6594951
88945.3590171
88965.0109002
88985.4944
89006.4367572
89027.1227328
89049.6492818
89072.124788
89094.2482325
89118.3787566
89143.3186843
89167.1551039
89189.031627
89208.8463972
89226.8757695
89243.9501355
89261.6322554
89280.4777201
89300.2772507
89320.6195339
89340.8195578
89359.8656315
89377.6457451
89393.8374288
89407.4043409
89419.329893
89431.2113678
89444.0287882
89458.5981778
89474.4114402
89490.3662835
89507.658233
89525.6873415
89540.0127728
89556.4586334
89576.6558445
89596.1743887
89615.1800971
89636.4655813
89655.8932599
89676.8118637
89696.5664041
89717.3071877
89739.1152372
89761.2346144
89781.4028009
89804.3056265
89824.8731931
89845.4333025
89865.2358325
89886.2705237
89907.9605902
89926.9337645
89942.5944325
89956.2417703
89969.6906969
89982.9560563
89995.9044118
90008.2921965
90017.1675664
90028.8459361
90040.8108721
90054.1939092
90068.7973867
90084.1830978
90102.5368097
90121.516129
90139.841606
90157.9930691
90176.9055403
90196.2272535
90214.5975361
90234.0779958
90254.0271523
90274.292878
90295.1551348
90315.446541
90334.0026161
90351.5226068
90369.3309107
90387.3308759
90404.9014904
90420.7191999
90434.1525626
90444.8708703
90453.0574634
90458.8655144
90463.3928476
90466.6762212
90468.916489
90470.6425706
90472.6096277
90475.4528281
90479.6635517
90485.4674609
90492.4247439
90499.8505973
90506.8757987
90513.1013382
90520.4984923
90531.00282
90543.931778
90558.3126083
90573.6656617
90590.6049746
90608.6606909
90629.1155463
90648.8695543
90670.1331351
90691.7126704
90713.2387064
90734.7336153
90757.4218996
90782.754531
90808.6956688
90833.6920849
90855.8588117
90877.7118683
90898.8515332