/*--------------------------------*- C++ -*----------------------------------*\
  =========                 |
  \\      /  F ield         | OpenFOAM: The Open Source CFD Toolbox
   \\    /   O peration     | Website:  https://openfoam.org
    \\  /    A nd           | Version:  6
     \\/     M anipulation  |
\*---------------------------------------------------------------------------*/
FoamFile
{
    version     2.0;
    format      ascii;
    class       volScalarField;
    location    "0.0004225";
    object      rho;
}
// * * * * * * * * * * * * * * * * * * * * * * * * * * * * * * * * * * * * * //

dimensions      [1 -3 0 0 0 0 0];

internalField   nonuniform List<scalar> 
32000
(
0.0656671586142
0.0656671672017
0.0656671815773
0.0656672047082
0.0656672348798
0.0656672746664
0.0656673212359
0.0656673772274
0.0656674395303
0.0656675074544
0.0656675789037
0.0656676527658
0.0656677276174
0.0656678020298
0.0656678750314
0.0656679475408
0.0656680214819
0.0656680900152
0.0656681572789
0.0656682239427
0.0656682905356
0.0656683579658
0.0656684278414
0.0656685018241
0.0656685821476
0.0656686710161
0.0656687721085
0.0656688861338
0.0656690145478
0.0656691589493
0.0656693208789
0.0656695001185
0.0656696875475
0.065669875471
0.0656700612616
0.0656702643293
0.0656704653337
0.0656706779741
0.0656708933049
0.0656711186779
0.065671351785
0.0656715954277
0.0656718502459
0.0656721124519
0.0656723690955
0.0656726117849
0.0656728321685
0.0656730248177
0.065673188016
0.0656733211655
0.0656734235358
0.0656734941783
0.0656735301496
0.0656735356541
0.0656735191426
0.0656734882787
0.0656734490631
0.0656734065106
0.0656733668162
0.0656733295732
0.0656732930966
0.065673256714
0.0656732204861
0.0656731850604
0.0656731507365
0.0656731191706
0.0656730908103
0.065673064727
0.0656730458132
0.065673024709
0.0656730037078
0.0656729834374
0.0656729633279
0.0656729454936
0.0656729290621
0.0656729125886
0.0656728941193
0.0656728731956
0.0656728488922
0.0656728202002
0.0656727865172
0.0656727473191
0.0656727023509
0.0656726525975
0.0656726037117
0.0656725610537
0.0656725278042
0.065672506561
0.0656724971589
0.0656725083159
0.065672536846
0.0656725836664
0.0656726505507
0.0656727393417
0.0656728513174
0.0656729830639
0.0656731327829
0.0656733043247
0.065673507539
0.0656737517367
0.0656740271696
0.0656743039472
0.0656745684133
0.0656748135169
0.0656750341809
0.0656752263738
0.0656753894426
0.065675519322
0.0656756149527
0.065675681249
0.065675714863
0.0656757229129
0.0656757054394
0.065675639111
0.0656755407582
0.0656753985898
0.0656752067534
0.0656749750501
0.0656747184365
0.0656744319546
0.0656740927801
0.0656737122293
0.0656733152966
0.0656728926861
0.0656724721359
0.0656720692014
0.0656716813277
0.0656713111931
0.0656709599927
0.0656706285447
0.0656703187855
0.0656700297722
0.0656697618085
0.0656695152936
0.0656692893933
0.0656690848081
0.065668901262
0.0656687376971
0.0656685939842
0.0656684695206
0.0656683629344
0.0656682719305
0.0656681975079
0.065668137423
0.0656680917986
0.0656680561772
0.0656680344218
0.0656680231708
0.0656680257559
0.0656680390392
0.0656680634851
0.0656680995701
0.0656681477886
0.0656682084289
0.0656682816111
0.0656683674206
0.0656684650887
0.0656685730048
0.0656686889579
0.0656688105085
0.0656689291544
0.0656690398346
0.0656691404496
0.0656692291635
0.065669304364
0.0656693656654
0.06566941345
0.0656694486548
0.0656694727798
0.0656694871577
0.065669492669
0.0656694912358
0.0656694818134
0.0656694608014
0.0656694381906
0.065669413725
0.0656693921571
0.0656693794466
0.0656693754531
0.0656693795654
0.0656693933189
0.0656694194705
0.0656694598286
0.0656695150848
0.0656695874203
0.0656696775682
0.0656697857061
0.0656699141463
0.0656700610366
0.0656702288585
0.0656704160866
0.0656706238319
0.0656708516141
0.0656710995094
0.06567134355
0.065671561159
0.0656717561768
0.0656719233704
0.0656720534366
0.0656721445454
0.065672206105
0.0656722521293
0.0656722900216
0.065672313125
0.0656723201918
0.0656723112598
0.0656722887514
0.0656722472832
0.0656721849384
0.065672099366
0.0656719923528
0.0656718645052
0.0656717179529
0.0656715532536
0.0656713711083
0.0656711717616
0.0656709556591
0.0656707405377
0.0656705498186
0.0656703771955
0.0656702235144
0.0656700917711
0.0656699781692
0.065669876116
0.0656697836864
0.0656697038571
0.0656696382098
0.0656695842447
0.0656695375913
0.0656694956836
0.0656694593678
0.0656694312847
0.0656694123331
0.065669400863
0.0656693947921
0.0656693915472
0.0656693906214
0.0656693938672
0.0656694023204
0.0656694164914
0.0656694361063
0.0656694614231
0.0656694924759
0.0656695297804
0.0656695748155
0.0656696290228
0.0656696900436
0.065669754737
0.0656698263241
0.0656699037079
0.0656699903193
0.0656700874614
0.0656701946986
0.0656703165579
0.0656704499516
0.0656705977358
0.0656707600886
0.0656709358886
0.0656711284944
0.0656713361544
0.0656715621372
0.065671806406
0.0656720699111
0.0656723553925
0.0656726612509
0.0656729908659
0.0656733437288
0.0656737212814
0.0656741247807
0.0656745542187
0.0656750114823
0.0656754961015
0.0656760103532
0.0656765541004
0.0656771286647
0.0656777345865
0.0656783725319
0.0656790280861
0.0656796384374
0.0656801975507
0.0656807079701
0.0656811660758
0.0656815667171
0.065681908768
0.0656821941076
0.0656824256062
0.0656826068707
0.0656827439396
0.0656828451931
0.0656829185699
0.0656829697885
0.0656830042705
0.0656830282313
0.0656830369376
0.0656830265612
0.0656830008319
0.0656829566225
0.0656828918988
0.0656828053343
0.0656826952391
0.0656825619891
0.0656824098515
0.0656822796597
0.0656821854147
0.0656821212475
0.0656820797984
0.0656820556577
0.0656820446077
0.0656820425725
0.0656820570434
0.0656820823995
0.065682120382
0.0656821742705
0.0656822432102
0.0656823300082
0.0656824333674
0.0656825548976
0.0656826928154
0.0656828482195
0.0656830186304
0.0656832038464
0.0656834022322
0.0656836133399
0.0656838358264
0.0656840691586
0.0656843145552
0.0656845629602
0.065684783648
0.0656849730064
0.0656851326947
0.0656852644087
0.0656853680224
0.0656854436577
0.0656854935753
0.065685521862
0.0656855352803
0.0656855416818
0.0656855379649
0.065685522054
0.0656854901457
0.0656854379124
0.0656853601116
0.0656852545594
0.0656851172288
0.0656849474985
0.0656847418749
0.0656844991717
0.0656842174251
0.0656838956395
0.0656835324354
0.0656831274684
0.0656826804509
0.0656821931282
0.0656816642224
0.0656810967046
0.0656804896559
0.0656798460217
0.0656791649674
0.0656784878129
0.065677874975
0.0656773210122
0.0656768167044
0.0656763529986
0.0656759211243
0.0656755127627
0.065675120859
0.0656747386966
0.0656743607408
0.0656739841183
0.0656736084033
0.0656732337166
0.0656728538882
0.0656724672932
0.065672080437
0.065671665648
0.0656712456438
0.0656707907377
0.0656702965447
0.0656697771923
0.0656691660348
0.0656685430046
0.0656677666197
0.0656669886464
0.0656659924123
0.065664993516
0.0656637225726
0.0656624242153
0.0656608158568
0.0656591317774
0.0656571130277
0.0656549539114
0.0656524415217
0.065649713128
0.0656466127432
0.0656432180167
0.0656394258839
0.065635262327
0.0656306655745
0.0656256251819
0.0656201021301
0.0656142749405
0.0656091979199
0.0656050613788
0.0656017878726
0.065599288427
0.0655974632521
0.0655962067883
0.0655954101517
0.0655949656448
0.0655947677258
0.0655947139386
0.0655947319194
0.0655948006319
0.0655949705487
0.0655952835484
0.0655957905915
0.0655965299201
0.0655975481725
0.0655988774169
0.065600553754
0.0656025979886
0.065605029356
0.0656078534509
0.0656110698228
0.0656146655873
0.0656186193789
0.0656228994448
0.0656274649575
0.0656322678677
0.0656372100892
0.0656419498772
0.0656464687305
0.0656508491922
0.0656551480131
0.0656594039568
0.0656636420166
0.06566787607
0.0656721114349
0.0656763527663
0.0656806105129
0.0656848959789
0.0656892246901
0.0656936140943
0.0656980833627
0.0657026503332
0.0657073328888
0.0657121467762
0.065717105336
0.0657222177245
0.06572748918
0.0657329206541
0.0657385087978
0.0657442460012
0.0657501209218
0.0657561187946
0.0657621882287
0.0657681226713
0.0657739047469
0.0657795689477
0.0657851414852
0.0657906429705
0.0657960901687
0.0658014963668
0.0658068725868
0.0658122272785
0.0658175667745
0.0658228967185
0.0658282212053
0.0658335424099
0.0658388626176
0.0658441827371
0.0658495034248
0.065854825164
0.0658601490922
0.0658654765747
0.0658708094472
0.0658761499024
0.0658815001981
0.065886862267
0.0658922385069
0.065897631073
0.0659030420099
0.0659084737032
0.0659139268187
0.0659194022925
0.0659249006692
0.0659304217358
0.0659359644773
0.0659415276967
0.0659471090242
0.0659527062968
0.065958317744
0.0659639414026
0.0659695738142
0.0659752144366
0.0659808571478
0.0659864942597
0.0659921297935
0.0659977655971
0.0660034026208
0.0660090417558
0.0660146836406
0.0660203290782
0.0660259793963
0.0660316352006
0.0660372972078
0.06604296632
0.0660486438813
0.0660543306811
0.0660600277383
0.0660657354568
0.0660714542234
0.0660771841943
0.0660829258063
0.0660886788392
0.0660944432582
0.0661002187982
0.0661060049595
0.0661118014111
0.0661176088188
0.0661234162851
0.0661292091508
0.066134988237
0.0661407552467
0.0661465123926
0.0661522598976
0.066157998328
0.0661637290672
0.0661694526822
0.0661751690612
0.0661808785052
0.0661865817814
0.0661922787656
0.0661979685445
0.0662036522096
0.066209329977
0.0662150024198
0.0662206703823
0.0662263338838
0.0662319932839
0.066237649246
0.0662433031943
0.0662489568446
0.0662546105394
0.0662602656723
0.0662659233252
0.066271584314
0.066277249172
0.0662829179789
0.0662885910811
0.0662942686592
0.0662999505865
0.0663056371962
0.0663113288766
0.0663170251044
0.066322725608
0.066328430112
0.0663341387435
0.0663398517828
0.0663455683361
0.0663512880274
0.066357011018
0.0663627368148
0.0663684652625
0.0663741960715
0.0663799291231
0.066385664143
0.0663914007487
0.0663971389586
0.0664028783898
0.0664086196185
0.0664143610811
0.0664201029315
0.0664258440451
0.0664315832751
0.0664373200175
0.0664430541807
0.0664487861056
0.0664545160924
0.0664602438085
0.0664659694481
0.0664716933603
0.0664774158469
0.0664831371395
0.0664888578231
0.0664945772029
0.0665002961802
0.0665060143876
0.066511732156
0.0665174496499
0.0665231669565
0.0665288840544
0.0665346005729
0.0665403171366
0.0665460335211
0.066551749872
0.0665574667911
0.0665631844834
0.0665689035922
0.0665746235849
0.0665803440699
0.0665860654459
0.0665917870968
0.0665975093466
0.0666032320129
0.0666089551979
0.0666146800088
0.0666204068885
0.0666261356531
0.0666318666999
0.0666376010534
0.0666433381391
0.0666490788645
0.0666548238959
0.0666605733481
0.0666663275482
0.0666720865191
0.066677850354
0.0666836194362
0.0666893934879
0.0666951726852
0.0667009568297
0.0667067462147
0.0667125405464
0.066718339651
0.0667241430934
0.0667299509487
0.0667357629702
0.0667415791041
0.0667473993286
0.0667532232289
0.0667590506157
0.0667648812915
0.0667707149455
0.0667765517986
0.066782391629
0.0667882338718
0.0667940781806
0.0667999241328
0.0668057715563
0.0668116203089
0.0668174694337
0.0668233159176
0.0668291595988
0.06683500045
0.0668408381153
0.0668466724609
0.0668525034998
0.0668583316319
0.0668641569142
0.0668699791737
0.0668757988914
0.0668816164426
0.0668874319062
0.0668932456145
0.0668990578689
0.0669048693787
0.0669106806365
0.0669164937987
0.066922309985
0.066928129587
0.066933952764
0.0669397794506
0.0669456101146
0.0669514452106
0.0669572843996
0.0669631268418
0.0669689717632
0.0669748194191
0.0669806697566
0.0669865222746
0.0669923768078
0.0669982333764
0.0670040917835
0.0670099513591
0.0670158124276
0.0670216750218
0.0670275392427
0.067033405147
0.0670392729802
0.0670451427034
0.0670510147487
0.0670568891285
0.06706276592
0.0670686451055
0.0670745265047
0.0670804096485
0.0670862947112
0.067092181508
0.0670980683637
0.0671039527009
0.0671098338075
0.067115711149
0.0671215848758
0.067127455322
0.0671333217416
0.0671391845286
0.0671450448858
0.0671509032881
0.067156761206
0.0671626204093
0.0671684824308
0.0671743490226
0.067180220457
0.0671860976095
0.067191980856
0.0671978702833
0.0672037663527
0.0672096691286
0.0672155781182
0.0672214937446
0.0672274158401
0.0672333444379
0.0672392798448
0.0672452223975
0.0672511723241
0.0672571300852
0.067263096129
0.067269071114
0.0672750562289
0.0672810521357
0.0672870590705
0.0672930773075
0.0672991070398
0.0673051482205
0.0673112006314
0.0673172630324
0.0673233344637
0.0673294140734
0.0673355001891
0.0673415914653
0.0673476846962
0.06735377714
0.0673598646294
0.0673659451214
0.0673720164948
0.0673780771148
0.0673841259604
0.0673901625127
0.0673961876228
0.0674022015661
0.0674082042557
0.0674141981732
0.0674201858453
0.0674261692949
0.0674321521224
0.0674381405612
0.0674441374294
0.0674501457231
0.0674561682808
0.0674622075981
0.0674682668558
0.0674743474921
0.0674804512726
0.0674865794542
0.0674927321255
0.0674989089616
0.0675051092576
0.0675113318265
0.0675175749386
0.0675238364964
0.0675301141711
0.0675364054509
0.0675427075645
0.0675490176794
0.0675553332028
0.067561650823
0.0675679680631
0.0675742807964
0.0675805873178
0.067586886244
0.0675931761552
0.0675994566207
0.0676057272052
0.0676119873891
0.0676182375878
0.0676244777335
0.0676307075547
0.067636926567
0.0676431343366
0.06764933111
0.0676555165722
0.06766168946
0.0676678483001
0.0676739932623
0.0676801234038
0.0676862381553
0.0676923373038
0.0676984205325
0.0677044874774
0.0677105383866
0.0677165745296
0.0677225960621
0.0677286052165
0.067734603686
0.0677405932806
0.0677465771638
0.0677525585567
0.0677585417729
0.0677645312084
0.0677705298405
0.0677765409956
0.0677825678353
0.0677886132163
0.0677946798195
0.0678007697294
0.0678068850936
0.0678130275737
0.0678191985351
0.0678253988977
0.0678316292249
0.067837889622
0.0678441797702
0.0678504990303
0.0678568465743
0.0678632213049
0.0678696219026
0.0678760467647
0.0678824942051
0.0678889626504
0.0678954499667
0.0679019541754
0.0679084733347
0.0679150056604
0.0679215492862
0.0679281026028
0.0679346640768
0.067941231161
0.0679478023136
0.067954376755
0.0679609533174
0.0679675299226
0.0679741030424
0.0679806719317
0.0679872363646
0.0679937959816
0.0680003509234
0.0680069018283
0.068013448937
0.0680199932917
0.0680265357003
0.0680330769721
0.0680396206676
0.0680461687727
0.0680527222261
0.0680592817811
0.0680658484879
0.0680724228076
0.0680790055615
0.0680855970446
0.0680921974366
0.0680988068477
0.068105425576
0.068112053727
0.0681186915896
0.0681253392065
0.068131996615
0.0681386639916
0.0681453413622
0.0681520285906
0.0681587254764
0.0681654321612
0.0681721488065
0.0681788753719
0.0681856113067
0.0681923568737
0.0681991121417
0.0682058769031
0.0682126508026
0.0682194332759
0.0682262238316
0.068233022283
0.0682398285743
0.0682466426976
0.0682534646694
0.0682602948062
0.0682671333547
0.0682739805763
0.0682808369518
0.0682877030523
0.0682945789024
0.0683014644247
0.0683083609166
0.0683152686643
0.0683221878249
0.0683291181507
0.0683360590238
0.0683430096258
0.0683499689601
0.0683569363748
0.0683639105937
0.0683708897106
0.0683778721519
0.0683848569223
0.0683918432502
0.06839883087
0.0684058203033
0.068412812858
0.0684198105473
0.0684268159838
0.0684338326179
0.0684408647384
0.0684479171331
0.0684549948887
0.0684621025955
0.0684692448945
0.0684764252274
0.0684836469937
0.0684909116867
0.0684982190155
0.0685055670247
0.0685129520657
0.0685203693855
0.0685278122531
0.0685352722752
0.0685427408774
0.0685502089866
0.0685576616628
0.0685650923569
0.0685724942777
0.0685798628472
0.0685871955685
0.0685944929901
0.0686017584574
0.0686089973657
0.0686162173834
0.0686234282721
0.0686306467704
0.0686378859182
0.06864516114
0.0686524832696
0.0686598637115
0.0686673157595
0.068674849706
0.0686824742731
0.0686901961349
0.06869801988
0.068705948024
0.0687139807922
0.0687221166643
0.0687303521697
0.0687386827821
0.0687471025521
0.0687556031997
0.0687641773727
0.0687728169231
0.0687815130538
0.0687902564994
0.0687990378246
0.0688078475629
0.0688166761269
0.0688255140411
0.0688343519096
0.0688431727439
0.0688519677224
0.0688607274769
0.0688694432629
0.0688781067506
0.0688867100344
0.0688952462393
0.0689037097549
0.0689120961519
0.068920402532
0.0689286277205
0.0689367724108
0.0689448392359
0.0689528327168
0.0689607598631
0.0689686296528
0.0689764517917
0.0689842371554
0.0689919996176
0.068999752375
0.0690075150725
0.069015300353
0.0690231197276
0.0690309870346
0.0690389143435
0.0690469131184
0.0690549931305
0.0690631638445
0.0690714346578
0.0690798135303
0.0690883069698
0.069096920735
0.0691056588644
0.0691145247047
0.0691235195622
0.0691326427214
0.0691418924083
0.0691512643789
0.0691607521862
0.0691703477558
0.0691800411696
0.0691898203306
0.0691996711415
0.0692095793755
0.069219530142
0.0692295058362
0.0692394873906
0.069249451951
0.0692593783634
0.0692692502075
0.069279054409
0.069288779854
0.0692984207933
0.0693079770958
0.0693174554658
0.0693268706848
0.069336247853
0.0693456242857
0.0693550513761
0.0693645666413
0.069374214064
0.0693840361996
0.0693940684788
0.0694043359958
0.0694148496956
0.0694256041834
0.0694365766866
0.069447728069
0.0694590056993
0.0694703459128
0.0694816939003
0.0694929538681
0.0695040770549
0.0695150244704
0.0695257799645
0.0695363490834
0.0695467589077
0.0695570575596
0.0695673028743
0.0695775912879
0.0695879846107
0.0695985408252
0.0696092998593
0.0696202860262
0.0696315037383
0.0696429350324
0.0696545431488
0.0696662784448
0.0696780840139
0.0696899332632
0.0697018404085
0.0697138202576
0.0697258862164
0.0697380509268
0.0697503259257
0.0697627215734
0.0697752473201
0.0697879117951
0.0698007229485
0.069813688247
0.0698268146169
0.0698401081821
0.0698535741596
0.0698672169535
0.0698810405684
0.069895048381
0.0699092423454
0.0699236239025
0.0699381929196
0.0699529477143
0.0699678863263
0.0699830059355
0.0699983027089
0.0700137719012
0.0700294080476
0.0700452058619
0.0700611570598
0.0700772555265
0.0700934951157
0.0701098689992
0.0701263724801
0.0701430009918
0.070159751097
0.0701766208849
0.0701936106384
0.0702107223877
0.0702279600114
0.0702453290999
0.0702628374554
0.0702804944366
0.0702983113421
0.0703163001397
0.0703344739375
0.0703528455743
0.0703714279375
0.0703902328059
0.0704092716688
0.0704285539054
0.0704480872676
0.0704678768844
0.0704879272009
0.0705082409685
0.070528821663
0.0705496729083
0.0705708014502
0.0705922170342
0.0706139358028
0.070635981016
0.0706583856768
0.0706811948608
0.0707044655786
0.0707282680958
0.0707526907485
0.0707778363249
0.0708038224299
0.0708307778653
0.0708581276715
0.0708849603234
0.0709112046184
0.070936902201
0.0709620084284
0.070986585165
0.0710106856994
0.0710341966048
0.0710574509495
0.071080060492
0.0711025546741
0.0711245351857
0.0711463259062
0.0711679061848
0.0711891617035
0.0712104148679
0.071231405825
0.0712523623828
0.0712732437549
0.0712940402101
0.0713148420679
0.0713356131978
0.0713563758401
0.07137714376
0.0713979207295
0.0714187181692
0.0714395564135
0.0714604737612
0.0714815161834
0.0715027488189
0.0715242484345
0.071545876759
0.0715673180812
0.0715885474828
0.0716094789459
0.0716301867698
0.0716505235441
0.0716706505227
0.0716903762013
0.0717099129561
0.0717290642067
0.0717480296029
0.0717666975684
0.0717851268026
0.0718034225667
0.07182140384
0.0718393788005
0.0718570822649
0.0718747424257
0.0718923092953
0.0719097450492
0.0719271888672
0.0719445571972
0.0719618893818
0.0719792255454
0.0719965402532
0.0720138467725
0.072031158076
0.0720484746243
0.0720658011062
0.0720831464459
0.0721005291327
0.0721179704907
0.0721354984414
0.0721531435059
0.0721709452221
0.072188947311
0.0722072008208
0.0722257592679
0.0722446810902
0.0722640246973
0.0722838545012
0.0723042309974
0.0723252154021
0.0723468609613
0.0723692148663
0.0723923103213
0.072416171567
0.072440803465
0.0724661942701
0.0724923087218
0.072519090686
0.0725464614253
0.072574324406
0.07260256388
0.0726310541539
0.0726595765052
0.0726880567189
0.0727165345245
0.0727450465329
0.0727736875636
0.0728026090697
0.0728320186334
0.0728621779879
0.0728934011579
0.0729260557613
0.0729605676212
0.0729974288509
0.0730372091114
0.0730805738573
0.0731283077825
0.0731813389662
0.0732407709719
0.0733079140899
0.0733843066585
0.0734717146393
0.0735720552801
0.0736858978889
0.0737976653541
0.0739012741689
0.073996874865
0.0740848426521
0.0741658329711
0.0742402753317
0.0743092454103
0.0743726673121
0.074432311795
0.0744870744567
0.0745396085303
0.074587848804
0.074634731708
0.0746783534224
0.074720437609
0.0747608585991
0.0747989159795
0.0748367136037
0.0748718438859
0.0749068785123
0.0749401564612
0.0749723835779
0.0750041892692
0.0750342064783
0.0750642375017
0.0750928998279
0.0751209840639
0.0751485911441
0.0751750816424
0.0752015779541
0.0752270243502
0.0752523702802
0.0752771019951
0.0753014757934
0.0753256700631
0.0753493527131
0.0753730498554
0.0753964125647
0.0754196456421
0.0754428444038
0.0754658690842
0.0754888793735
0.0755118737908
0.0755348266699
0.0755577758389
0.0755807417605
0.0756037232637
0.0756267375695
0.0756498113181
0.0756730035282
0.0756962711894
0.0757194603352
0.0757425014964
0.075765404891
0.0757881161203
0.0758106276245
0.0758329196051
0.0758549927895
0.0758767974667
0.0758984086089
0.0759197186198
0.0759408461566
0.0759617055962
0.0759823572501
0.0760028143026
0.0760230523885
0.0760431479124
0.0760630540536
0.0760828607523
0.0761024961269
0.076122103546
0.0761415524547
0.0761610030849
0.0761803702861
0.0761997141592
0.0762190371376
0.076238346476
0.0762576485762
0.0762769525937
0.076296262066
0.0763155831428
0.0763349286923
0.07635431998
0.0763737874671
0.0763933708058
0.0764131216734
0.0764331062213
0.0764533913468
0.0764736608657
0.0764937119897
0.076513509811
0.0765330244043
0.07655224257
0.0765711417053
0.0765897309876
0.076607987127
0.0766259514506
0.0766435801289
0.0766609638914
0.0766780097091
0.0766948866169
0.0767114254319
0.076727873287
0.0767440005558
0.076760098578
0.0767759148469
0.0767917307911
0.0768073427045
0.0768229322154
0.0768384284189
0.0768538589951
0.0768692806258
0.0768846409681
0.0768999997611
0.0769153430453
0.076930674932
0.0769460086391
0.0769613443595
0.0769766826496
0.0769920293184
0.0770073927035
0.0770227858105
0.0770382233674
0.077053725308
0.0770693152047
0.0770850224264
0.0771008773939
0.0771169148231
0.0771331699823
0.0771496820763
0.0771664930302
0.0771834743356
0.0772003114333
0.0772169817785
0.0772334952421
0.0772498682698
0.0772661161595
0.0772822668998
0.0772983293809
0.0773143376866
0.0773302924781
0.0773462221064
0.0773621216439
0.0773780078554
0.0773938703321
0.0774097070109
0.0774255142946
0.0774412769652
0.0774569905082
0.0774726366622
0.0774882093335
0.0775036934183
0.0775190824256
0.077534370679
0.0775495500685
0.0775646254917
0.0775795908383
0.0775944554052
0.0776092214982
0.077623895081
0.077638488123
0.0776530069654
0.0776674649013
0.0776818710681
0.0776962363274
0.0777105695506
0.0777248842299
0.0777391810894
0.0777534740114
0.0777677619832
0.0777820512126
0.0777963453578
0.077810652008
0.0778249621747
0.0778392581286
0.0778535327127
0.077867780877
0.0778819964092
0.0778961790865
0.0779103296972
0.0779244450195
0.0779385338621
0.0779525971973
0.0779666371295
0.0779806653056
0.0779946792884
0.0780086851735
0.0780226903557
0.0780366922365
0.07805069495
0.0780647017706
0.0780787158478
0.0780927435385
0.0781067951668
0.0781208848958
0.0781350322359
0.0781492627621
0.0781636075902
0.0781781061639
0.0781928060371
0.0782077645751
0.0782230353384
0.0782383301527
0.0782534219421
0.0782682965218
0.078282950103
0.0782973891497
0.0783116260353
0.0783256793673
0.0783395725267
0.0783533331375
0.0783669883354
0.0783805664364
0.0783940914362
0.0784075863284
0.0784210662296
0.07843454173
0.0784480192678
0.0784615065388
0.0784750176787
0.0784885735961
0.0785021916241
0.078515885063
0.0785296763034
0.0785435909516
0.0785576548182
0.0785718984824
0.0785863571262
0.0786010693095
0.0786160806078
0.0786314418731
0.0786472136845
0.0786631726879
0.0786789078751
0.0786943868193
0.0787096041432
0.0787245595118
0.0787392584137
0.0787537107494
0.0787679331182
0.0787819461233
0.0787957753645
0.0788094465472
0.0788230034527
0.0788363518291
0.0788495003669
0.0788625308933
0.0788755537626
0.0788886736307
0.0789019193568
0.0789152975822
0.0789287842274
0.0789423299216
0.0789559351763
0.0789696326406
0.0789834569797
0.0789974471625
0.079011638849
0.0790258105244
0.0790398399818
0.0790537104546
0.0790674134123
0.0790808892453
0.0790938425989
0.0791062357171
0.0791180954315
0.0791295166402
0.0791406352846
0.0791516059552
0.0791626195379
0.0791738311017
0.0791853385787
0.0791972121892
0.0792094905297
0.0792221696582
0.0792352075691
0.0792485304253
0.079262042171
0.0792756462262
0.0792893517983
0.079303197047
0.079317230752
0.0793314918237
0.0793457566994
0.0793598758635
0.0793738394612
0.0793876448605
0.0794013155592
0.0794146827302
0.0794276823313
0.079440365814
0.0794528478097
0.0794652573722
0.0794777718377
0.0794904645153
0.0795033933227
0.0795165699058
0.0795299689816
0.07954353235
0.0795571822648
0.0795709171571
0.0795847767659
0.0795988109871
0.0796130762895
0.0796276382108
0.0796425749993
0.0796579114004
0.0796731464273
0.079688096511
0.0797027397218
0.0797170637365
0.0797310598853
0.0797447461624
0.0797576374668
0.0797696227861
0.0797807417699
0.0797911708094
0.0798011388113
0.0798108955041
0.0798207534247
0.0798309209211
0.0798415442664
0.0798527167779
0.0798644860719
0.0798768414069
0.0798897181011
0.079903009592
0.0799165802094
0.0799302882229
0.0799441362027
0.0799581841196
0.0799725084649
0.0799871920646
0.0800023309325
0.0800180241832
0.0800338464759
0.080049323916
0.0800644224162
0.0800791252863
0.0800934236475
0.080107345557
0.0801205483063
0.0801325882968
0.0801434699938
0.080153346177
0.0801624513566
0.0801710759542
0.0801795157406
0.0801881595595
0.0801971960043
0.0802068043062
0.0802170937628
0.0802281212326
0.0802398828354
0.0802523164133
0.0802653132758
0.0802787311831
0.0802924073889
0.0803062113384
0.080320178246
0.0803343689068
0.080348655658
0.080362797811
0.0803767656743
0.0803905350018
0.0804037895356
0.0804164716885
0.0804286097472
0.0804403227381
0.0804517743956
0.080463146402
0.0804746811958
0.0804864813362
0.0804986448464
0.0805112171255
0.0805241973117
0.0805375378178
0.0805511542829
0.0805649360843
0.0805788124707
0.080592825643
0.0806070302457
0.0806214890106
0.0806362767662
0.0806512985377
0.0806661486926
0.0806807652857
0.0806951386585
0.0807092595169
0.0807231545896
0.0807364888611
0.0807491727611
0.0807612549656
0.080772891077
0.0807842721978
0.0807956098564
0.080807150583
0.0808189939845
0.0808312280091
0.0808438911514
0.0808569702078
0.0808704084226
0.0808841126893
0.080897967794
0.0809119201354
0.0809260160246
0.0809403119184
0.0809548710561
0.0809697666625
0.080985069958
0.0810004407114
0.0810155544793
0.0810303898714
0.0810449378449
0.0810591897508
0.0810731838112
0.0810865606241
0.0810991504639
0.0811109867848
0.0811222231284
0.0811330581888
0.0811437121367
0.0811544616697
0.0811654829455
0.0811769008567
0.0811887914542
0.0812011915458
0.0812140834334
0.0812274026334
0.0812410534408
0.0812549190361
0.0812688895948
0.0812829863747
0.0812972576227
0.0813117640259
0.0813265712007
0.0813417370561
0.0813569262043
0.081371887613
0.081386604486
0.0814010717767
0.0814152890504
0.0814292709954
0.0814426689916
0.0814554345193
0.0814676253497
0.0814793954871
0.0814909316316
0.0815024373645
0.0815141406365
0.0815261343852
0.0815385002564
0.081551275169
0.0815644491896
0.0815779734509
0.0815917668349
0.0816057270864
0.0816197728863
0.0816339316473
0.081648243925
0.0816627581015
0.081677527127
0.0816925916092
0.0817076558942
0.0817225346484
0.0817372199899
0.0817517080314
0.0817660012775
0.0817801267462
0.0817939244324
0.0818072608486
0.0818201774656
0.0818327812129
0.0818451966648
0.0818575549422
0.081870019296
0.0818826475129
0.0818954880681
0.0819085526796
0.0819218212426
0.081935246247
0.0819487555039
0.0819622793025
0.0819756913022
0.0819889090187
0.0820018581968
0.0820144833318
0.0820267514446
0.0820386555305
0.0820502108416
0.0820614519561
0.0820724288292
0.0820831991632
0.0820938222077
0.0821043513765
0.0821148304034
0.0821252928788
0.0821357622713
0.082146244615
0.082156733912
0.082167217837
0.0821776787903
0.0821881145123
0.0821985344425
0.0822089778835
0.082219488097
0.0822301251857
0.0822409569065
0.0822520560605
0.0822634911491
0.0822753182696
0.0822875733615
0.0823002669796
0.0823133806763
0.082326868015
0.082340659784
0.0823546692853
0.0823687990159
0.0823830003932
0.0823973023598
0.0824117366724
0.0824263372091
0.082441129413
0.0824559049421
0.0824705593532
0.0824850872355
0.0824994898606
0.08251377347
0.0825279201691
0.0825417746402
0.0825553540896
0.0825687117586
0.0825819315411
0.082595103011
0.0826083411381
0.0826216903303
0.0826351829004
0.0826488189279
0.0826625712271
0.0826763857915
0.0826901984124
0.0827038774666
0.0827173240343
0.0827304290806
0.0827430934178
0.0827552319846
0.0827667803878
0.0827777008051
0.082787989197
0.0827976768162
0.0828068284954
0.0828155402084
0.0828239346698
0.0828321561756
0.0828403779598
0.0828487906957
0.0828575099283
0.0828666522427
0.0828763131807
0.0828865521615
0.0828973912018
0.0829088102168
0.0829207533
0.0829331262696
0.0829458081621
0.0829586607038
0.082971559823
0.0829843306829
0.0829968490593
0.0830090368913
0.083020853777
0.0830322954548
0.0830433994404
0.0830542394467
0.0830649198432
0.0830755712501
0.0830863692162
0.0830974090118
0.0831087936224
0.0831206017418
0.0831328804892
0.0831456431744
0.0831588669852
0.0831724959456
0.0831864470425
0.08320061941
0.0832149070061
0.0832292783226
0.0832437673358
0.0832584131015
0.0832732564702
0.0832883422409
0.0833037200931
0.0833194481432
0.0833355890152
0.0833521828346
0.0833687367527
0.0833850063267
0.0834009731723
0.0834166275997
0.0834319664162
0.0834469911784
0.0834616986045
0.0834761291239
0.0834898900424
0.0835027945968
0.0835148513814
0.0835261827666
0.0835369471504
0.0835473211384
0.0835574814156
0.0835675893675
0.0835778269061
0.0835882509678
0.0835989079759
0.0836098011536
0.0836208991872
0.0836321398881
0.0836434425392
0.0836547138048
0.0836658214831
0.083676696088
0.0836872854127
0.0836975731877
0.0837075870495
0.0837173952766
0.0837271009649
0.0837368810037