/*--------------------------------*- C++ -*----------------------------------*\
  =========                 |
  \\      /  F ield         | OpenFOAM: The Open Source CFD Toolbox
   \\    /   O peration     | Website:  https://openfoam.org
    \\  /    A nd           | Version:  6
     \\/     M anipulation  |
\*---------------------------------------------------------------------------*/
FoamFile
{
    version     2.0;
    format      ascii;
    class       volScalarField;
    location    "0.0004225";
    object      T;
}
// * * * * * * * * * * * * * * * * * * * * * * * * * * * * * * * * * * * * * //

dimensions      [0 0 0 1 0 0 0];

internalField   nonuniform List<scalar> 
32000
(
729.969689267
729.969746257
729.969825288
729.969957112
729.970127876
729.970354665
729.970618534
729.970936975
729.971290325
729.971676449
729.972082116
729.972502222
729.972927974
729.973352199
729.973768868
729.974183134
729.974605672
729.974997774
729.975382829
729.975764695
729.976146356
729.976533374
729.976934384
729.977359143
729.977820313
729.978330476
729.97891058
729.979564508
729.980300772
729.981128196
729.982055701
729.983081789
729.984154901
729.985231037
729.986295518
729.987458399
729.988609985
729.989827902
729.991061481
729.992352364
729.993687622
729.995083124
729.996542476
729.998044109
729.999514369
730.000905592
730.002170329
730.003277704
730.004217988
730.004987704
730.005582735
730.00599753
730.006215614
730.006260517
730.00618074
730.006019352
730.005811025
730.005583852
730.005373479
730.005177078
730.004985514
730.004794529
730.004604843
730.004419829
730.004241371
730.004078761
730.003934704
730.003803785
730.003713949
730.003611902
730.003510697
730.00341393
730.003318319
730.003235883
730.003161647
730.003087439
730.003002135
730.002903164
730.002785181
730.002642552
730.002471707
730.002269806
730.002035203
730.001773582
730.001517032
730.001296242
730.001129141
730.001030607
730.000999604
730.001085716
730.001270742
730.001559972
730.001963467
730.002491557
730.003151647
730.003924298
730.0047994
730.005798776
730.006978544
730.008391446
730.009982205
730.011580836
730.013109811
730.014528883
730.015809301
730.016928054
730.017881493
730.018646533
730.019217072
730.019621033
730.019839526
730.019912803
730.019841372
730.019492414
730.018961749
730.018182291
730.017120861
730.0158331
730.014404119
730.012805585
730.010907828
730.008775066
730.006549466
730.004178079
730.001818616
729.999559554
729.997386222
729.995314034
729.993349674
729.991497673
729.989769235
729.988158979
729.98666865
729.985300546
729.984049965
729.982920899
729.981911647
729.981016196
729.980233933
729.9795612
729.978990315
729.978508073
729.978120371
729.977814116
729.977590327
729.977423539
729.977335783
729.977308053
729.97735922
729.977471379
729.977647356
729.97788977
729.978201386
729.978583913
729.97903797
729.979564114
729.980157839
729.980810106
729.981508207
729.982238399
729.982952321
729.98362107
729.984232787
729.984777278
729.98524495
729.985633832
729.985946011
729.986186887
729.986364974
729.986487825
729.986560622
729.986594283
729.986582751
729.986505769
729.986420042
729.986324026
729.986244862
729.98621628
729.986237532
729.986305174
729.986427953
729.986621419
729.98689584
729.98725515
729.98771171
729.988269753
729.988930156
729.989706249
729.990587319
729.991587462
729.992698309
729.993925862
729.99526768
729.996724071
729.998158788
729.999443642
730.00060032
730.001599142
730.002387054
730.002953884
730.003352963
730.003663837
730.003928648
730.00410971
730.004199785
730.004199029
730.004121342
730.003935878
730.003632136
730.003196285
730.002638764
730.001962932
730.001181001
730.000296247
729.999312395
729.998231149
729.997054943
729.995884804
729.994853509
729.993925543
729.993105387
729.992410331
729.991818523
729.991292654
729.990821776
729.990422837
729.990104602
729.989852938
729.989643202
729.989460555
729.989309765
729.98920612
729.989154839
729.989145807
729.989167816
729.989206164
729.989257681
729.989333045
729.989438264
729.989576456
729.989745656
729.989947701
729.990182563
729.990453317
729.990768424
729.991136031
729.991542353
729.991970031
729.992437126
729.992937232
729.993490254
729.994103128
729.994773495
729.995527407
729.996346828
729.997247993
729.998232541
729.999293447
730.000450076
730.001692567
730.003039513
730.004490229
730.006050748
730.007736522
730.009538153
730.011475148
730.013544742
730.015754843
730.018112849
730.020618641
730.023282742
730.026102591
730.029091341
730.032248115
730.035580019
730.039090226
730.04278289
730.046576037
730.050112232
730.053357116
730.056325674
730.05899727
730.061341831
730.063353521
730.065043218
730.066427141
730.067525633
730.068372991
730.069017049
730.069503025
730.069863188
730.070128376
730.070334066
730.070453508
730.070464692
730.070388862
730.070207947
730.069910902
730.069490178
730.068935558
730.06824987
730.067456831
730.066788704
730.066325439
730.066033242
730.065870003
730.06580565
730.065815875
730.065877335
730.066032896
730.066250386
730.066539983
730.066920477
730.067386598
730.067954304
730.068616718
730.069382375
730.070241556
730.071200725
730.07224534
730.073373968
730.074577784
730.07585444
730.077196104
730.07859905
730.080070774
730.081560008
730.082892064
730.084046029
730.085031272
730.085857828
730.086525021
730.087033384
730.087395751
730.087635084
730.087789957
730.087905218
730.087963612
730.087952832
730.087851241
730.08763453
730.087272453
730.086752687
730.086052611
730.085169042
730.084081648
730.082783433
730.081263678
730.079516903
730.077534882
730.075315467
730.072857542
730.070171099
730.067248321
730.064106074
730.060739536
730.057165438
730.053378743
730.049614084
730.046215327
730.043151694
730.040370117
730.037819505
730.035450062
730.033214078
730.031072063
730.028985799
730.026923336
730.024868469
730.022819191
730.02077583
730.018703463
730.016592736
730.014480923
730.012210744
730.009911024
730.007413088
730.004691911
730.001827807
729.998442127
729.994989442
729.990665194
729.986331772
729.980757291
729.975167847
729.968032431
729.96074152
729.951687839
729.942203255
729.930816048
729.918631258
729.904437612
729.889015585
729.871478496
729.852267929
729.830796864
729.80721319
729.781165564
729.752594425
729.721277359
729.688229111
729.659445737
729.636011269
729.617485652
729.603362282
729.5930739
729.586021048
729.581584522
729.57915099
729.578120317
729.577909749
729.578107397
729.578593688
729.579656003
729.581532934
729.584513986
729.588816068
729.594704424
729.602361973
729.611994458
729.623719556
729.63764637
729.653806672
729.672198149
729.692747034
729.71533219
729.739772738
729.765835409
729.793246866
729.821449896
729.848501319
729.874295871
729.899302619
729.923844359
729.948141411
729.97233626
729.996507804
730.020685455
730.044896091
730.069200788
730.093661391
730.118365725
730.143415141
730.168918337
730.194975588
730.221688273
730.24914687
730.277427348
730.306581185
730.336637548
730.367601983
730.399455434
730.432154519
730.465634856
730.499812425
730.534395291
730.568210033
730.601158083
730.633435147
730.665190434
730.69654063
730.727581421
730.758387989
730.789023461
730.819535253
730.849958921
730.880328071
730.910664218
730.940979234
730.971288288
731.001596428
731.031906542
731.062220983
731.092546447
731.122890813
731.153264725
731.183681063
731.214152639
731.244689362
731.275305252
731.306012331
731.336822585
731.367750864
731.398798645
731.429971436
731.461273695
731.492703479
731.524254991
731.555921605
731.5876891
731.619545313
731.6514818
731.683487007
731.715537862
731.747634023
731.779741442
731.811815645
731.843879998
731.875944873
731.908015351
731.940096452
731.972191513
732.004305368
732.036446249
732.068617093
732.100821438
732.133065148
732.165355624
732.197697539
732.230096404
732.262554563
732.295073319
732.327654097
732.360299906
732.393009043
732.425781456
732.45861587
732.49150822
732.524456744
732.557465851
732.590474463
732.623399312
732.656243692
732.689018095
732.721737052
732.754397762
732.787004838
732.819568184
732.852090538
732.884570091
732.917009034
732.949413652
732.981780223
733.014102428
733.046389637
733.078642665
733.110864699
733.143061167
733.175230837
733.207375397
733.239498907
733.271610399
733.303720188
733.335828024
733.367942538
733.400070004
733.432215236
733.46438139
733.496568288
733.528778189
733.561012037
733.593268504
733.625550225
733.657860381
733.690194855
733.722551628
733.754928895
733.78732828
733.81975258
733.85219513
733.884653411
733.917129346
733.949619551
733.982123392
734.014639127
734.047166375
734.079703487
734.112247889
734.144800352
734.177358251
734.209926225
734.242491982
734.275058297
734.307619688
734.340169887
734.372704468
734.405222806
734.437727528
734.470220748
734.502699384
734.535164602
734.567618704
734.600063539
734.632500386
734.664933513
734.69735684
734.72977719
734.762191197
734.794601406
734.827008978
734.859414422
734.891817396
734.924214892
734.956611947
734.989006578
735.021399691
735.053794591
735.086191901
735.118597004
735.151005458
735.183414526
735.215827847
735.248240439
735.280655248
735.313071045
735.345488034
735.377913834
735.410350775
735.442796438
735.475253215
735.507728508
735.540216215
735.572722974
735.605253294
735.637807409
735.67038744
735.702993047
735.735624602
735.768284973
735.800971567
735.833685761
735.866426075
735.899195255
735.931991253
735.964813066
735.997657541
736.030525687
736.063415809
736.096327829
736.129261949
736.162215172
736.195186393
736.228174427
736.261177194
736.294196901
736.327232287
736.360279592
736.393337009
736.426402097
736.459474396
736.492553635
736.525633912
736.558695746
736.591739924
736.624767347
736.657775713
736.69076421
736.723732804
736.756684381
736.789618947
736.822534604
736.855434762
736.888321824
736.921195662
736.954058121
736.986910648
737.019757922
737.05260253
737.085456723
737.118327262
737.151215725
737.184122643
737.217047102
737.249992745
737.282963112
737.315955329
737.348963092
737.381981325
737.415013426
737.448059974
737.481117564
737.514185338
737.547263844
737.580351854
737.613444191
737.646543674
737.679650498
737.712765241
737.745888029
737.779020478
737.812161856
737.84531534
737.878480721
737.911658465
737.944848454
737.978049524
738.011258376
738.044477201
738.077705585
738.110932358
738.144142414
738.177332489
738.210499643
738.243645592
738.276772957
738.30987511
738.342954229
738.376018641
738.409070278
738.44211895
738.475173248
738.508241193
738.541334106
738.574452227
738.607601278
738.64078335
738.673998552
738.707250303
738.740538934
738.773860351
738.807218039
738.840610536
738.874037905
738.907502195
738.941005425
738.974548486
739.008133926
739.041763961
739.075442253
739.109176685
739.142970984
739.176825774
739.210742406
739.244722017
739.278764319
739.312868326
739.34702561
739.381230928
739.415480808
739.449765843
739.484080036
739.518402625
739.552718244
739.587005003
739.621251713
739.655446254
739.68957905
739.723644279
739.757638781
739.791569154
739.825436181
739.859236507
739.892986253
739.926700543
739.960389165
739.994072734
740.027787303
740.061548074
740.095371083
740.129271921
740.163264088
740.197367423
740.231588528
740.265937881
740.30042322
740.33504427
740.369798853
740.404683059
740.439690343
740.474810919
740.510033013
740.545343751
740.580729312
740.616174092
740.651662048
740.687179002
740.722704522
740.758225367
740.79372001
740.829179079
740.864595003
740.899958597
740.935267992
740.970520641
741.005712773
741.04084799
741.075925884
741.110944653
741.145900989
741.180792105
741.215620818
741.250385705
741.285078216
741.319688398
741.354219754
741.388666643
741.423026159
741.457297855
741.491479806
741.525569059
741.559566758
741.593481375
741.627311434
741.661071331
741.694770117
741.72841679
741.762030272
741.79562918
741.829237185
741.862877818
741.896567266
741.930324936
741.96416894
741.99811547
742.032179727
742.066372613
742.100706273
742.13518978
742.169830832
742.204634575
742.239604317
742.274740652
742.310041645
742.345503545
742.381121765
742.416890157
742.452801349
742.488846163
742.52501513
742.561299989
742.597688204
742.634168644
742.670730499
742.707364124
742.744059063
742.780806767
742.817599228
742.854420104
742.891260973
742.928119245
742.964988628
743.001856595
743.038702717
743.075523482
743.112318346
743.149084559
743.185822854
743.222537451
743.259228774
743.295903318
743.33256516
743.369218087
743.405883244
743.442571985
743.479288563
743.516036836
743.552823288
743.589649892
743.626521951
743.663440769
743.700407052
743.737421203
743.774485332
743.811600041
743.848767464
743.885987723
743.923260894
743.960588205
743.997969722
744.0354043
744.072890324
744.110428982
744.14802163
744.185668074
744.223364
744.261111835
744.298912493
744.336764812
744.374666617
744.412614143
744.45060417
744.488635804
744.526708969
744.564823719
744.602980046
744.641180149
744.679425442
744.717717242
744.756058435
744.79445248
744.832898392
744.871394344
744.909949919
744.948566619
744.987245402
745.025984609
745.064780301
745.103627665
745.142521023
745.181458116
745.220432092
745.259431264
745.29844646
745.337472573
745.37650525
745.415542863
745.454588467
745.49364956
745.532737335
745.571865825
745.611053957
745.650325802
745.689708244
745.729229973
745.768915749
745.808791714
745.848875977
745.889188991
745.929739036
745.970523918
746.01153234
746.052743683
746.094132803
746.135662439
746.177285106
746.218953608
746.260616152
746.302189683
746.343639697
746.384928194
746.426029332
746.466928415
746.507629173
746.548151238
746.588524294
746.628790163
746.66900291
746.709254511
746.749617321
746.790181962
746.831004179
746.872144025
746.913679195
746.955666463
746.998154161
747.04117908
747.084766574
747.128930734
747.173672459
747.218983498
747.264844179
747.311230096
747.358108593
747.405430685
747.453157032
747.501243212
747.549640531
747.598297248
747.647160789
747.696178729
747.745298065
747.794466444
747.843631887
747.892699268
747.94161968
747.990341605
748.038816742
748.086999088
748.134844643
748.182315432
748.229380858
748.276016468
748.322206251
748.367943743
748.413232805
748.458087943
748.502533728
748.546609723
748.590366755
748.633857454
748.677140285
748.720294967
748.763394999
748.80654855
748.849823756
748.893280294
748.93699983
748.981049261
749.02549243
749.070381737
749.115769024
749.161707866
749.208242491
749.255408026
749.303236492
749.351749148
749.400965319
749.450891743
749.501523212
749.552850791
749.604850698
749.657486457
749.71071366
749.764477893
749.818711699
749.873335474
749.928272031
749.983442012
750.038747329
750.094074329
750.149302862
750.204317152
750.259025423
750.313357147
750.367250627
750.420675317
750.473630596
750.526152466
750.578321006
750.630276675
750.682225657
750.734450663
750.787157095
750.840588641
750.894980122
750.950526906
751.007366927
751.065559565
751.125074558
751.185785784
751.247477232
751.30985982
751.372581027
751.4353396
751.497608532
751.559118798
751.619654761
751.679127336
751.737567755
751.795125589
751.852068765
751.908710757
751.965585666
752.023034661
752.081377239
752.140832012
752.201531304
752.263500967
752.326641675
752.390749689
752.45555264
752.520737324
752.586156529
752.651888743
752.718015364
752.784609884
752.851741726
752.919474126
752.987863843
753.05696254
753.126817362
753.197471665
753.268966161
753.341338639
753.414622407
753.48884563
753.564031826
753.640202849
753.71737761
753.795565912
753.874776706
753.955008187
754.036249525
754.118489462
754.201713082
754.285899098
754.371020949
754.457048561
754.543955058
754.63169063
754.72022335
754.809519831
754.899540539
754.990261347
755.081657102
755.17370834
755.266404092
755.359745757
755.453744246
755.548419924
755.643803179
755.739936722
755.836871522
755.934669023
756.033394245
756.133118432
756.233911211
756.335842375
756.438975478
756.543373989
756.649089259
756.756162567
756.864620602
756.97448646
757.085774668
757.198503708
757.31269254
757.428377621
757.545611294
757.664481393
757.785114044
757.907688871
758.032453043
758.159715684
758.28985383
758.423351661
758.560768533
758.702743786
758.84997677
758.999329289
759.145831584
759.289097219
759.429355422
759.566364788
759.70046448
759.83194662
759.960192718
760.087018813
760.21031233
760.332957281
760.452784941
760.571561523
760.689172477
760.804999973
760.920795441
761.035147781
761.149295319
761.263015579
761.376255956
761.489507617
761.602575429
761.715580468
761.828593324
761.941638221
762.054773974
762.168112559
762.281862791
762.396272616
762.511696006
762.628548411
762.746080391
762.862579229
762.977910592
763.091608446
763.204076552
763.314515944
763.423802648
763.53089941
763.636959183
763.740913925
763.843847648
763.945155741
764.045158377
764.144424085
764.241975555
764.339478925
764.435500787
764.531275447
764.626533119
764.721069291
764.815637247
764.909783759
765.003722799
765.097669805
765.191491525
765.28525287
765.379028255
765.472818502
765.566651821
765.66057517
765.754689417
765.849107471
765.943981046
766.039473866
766.135800169
766.233195148
766.33193314
766.43230368
766.534620633
766.639195693
766.746377306
766.856488906
766.96986067
767.08677898
767.207495636
767.332184242
767.46097557
767.593893844
767.730873933
767.871723382
768.016134444
768.163683296
768.313849516
768.466009208
768.619485299
768.773101261
768.92645768
769.07976862
769.233231474
769.387354724
769.542951085
769.70113425
769.863307114
770.031151842
770.206636338
770.392039112
770.589992183
770.803537833
771.03622791
771.292250557
771.576549138
771.894995366
772.254554673
772.663391072
773.130856517
773.667073714
774.274909974
774.871137831
775.423411849
775.932636047
776.40090004
776.831769469
777.227593423
777.594143127
777.931059801
778.247782578
778.538476148
778.817243348
779.073146421
779.321776781
779.553045159
779.776111296
779.990297007
780.191925982
780.392116138
780.578155507
780.763636621
780.939791016
781.110347256
781.278641244
781.437447925
781.596298311
781.74788274
781.89639194
782.042345606
782.182386393
782.322424329
782.456904184
782.590824597
782.721486271
782.850233509
782.978015549
783.103075215
783.228194629
783.351526023
783.474157966
783.596586366
783.718078194
783.83946867
783.96076056
784.081809707
784.202824406
784.323902526
784.445047626
784.566339907
784.687928913
784.810115962
784.932684327
785.054815651
785.176153941
785.296744195
785.416310729
785.534804971
785.652132875
785.768290019
785.88302429
785.996721423
786.108825244
786.219951476
786.329658915
786.438257156
786.545822584
786.652221349
786.757861036
786.862489684
786.966585593
787.069766067
787.172788461
787.274963081
787.377134972
787.478852093
787.580435983
787.681893562
787.783267998
787.884587717
787.985905293
788.087234183
788.18861122
788.290098432
788.391812451
788.493907961
788.596597653
788.700145818
788.804901448
788.91121095
789.017424983
789.122479846
789.22619966
789.328422473
789.429084969
789.528066792
789.625420017
789.721019467
789.815087372
789.907389657
789.998403793
790.087642285
790.175992179
790.262566746
790.348659834
790.433069607
790.517319696
790.600088466
790.682849395
790.764535326
790.846099404
790.92716601
791.007885161
791.088546702
791.168883234
791.249200265
791.329430223
791.409590302
791.489753867
791.569917484
791.650088418
791.730292884
791.810577284
791.891005774
791.971658574
792.052635183
792.134062331
792.216088726
792.298876047
792.382600627
792.467448361
792.55361745
792.641331557
792.729917838
792.817745322
792.904694021
792.990818834
793.076202241
793.160927593
793.245137167
793.32888037
793.412330386
793.495494951
793.578515428
793.66137155
793.744149562
793.826794712
793.909289518
793.991627034
794.07372105
794.155552395
794.237025613
794.318109097
794.398723678
794.478838667
794.558422144
794.637434973
794.715900285
794.793789268
794.871148127
794.947989544
795.024343341
795.100273356
795.175811047
795.251026962
795.325967061
795.400688754
795.475237071
795.54968254
795.624028317
795.698346794
795.77263206
795.846916993
795.921220296
795.995581529
796.069953354
796.144244441
796.218417419
796.292446647
796.3662996
796.439975501
796.513477687
796.586790141
796.659957937
796.732986632
796.805886752
796.878719285
796.951470937
797.024172754
797.096865185
797.169532155
797.242195321
797.314872867
797.387579876
797.460349108
797.533235901
797.606311592
797.679677549
797.75346634
797.827838573
797.902997931
797.979189517
798.056708974
798.135832073
798.215071552
798.293256496
798.370313586
798.446224062
798.521021805
798.594771626
798.667567044
798.739530007
798.810803145
798.881526312
798.951845385
799.021883713
799.091760789
799.161553586
799.231316802
799.301082765
799.370891466
799.440811855
799.51095782
799.581420361
799.652259091
799.723590431
799.795551744
799.86827392
799.941914655
800.01665598
800.092694902
800.170267613
800.249633353
800.331104091
800.413530069
800.494797475
800.574739458
800.65332913
800.730564451
800.806474191
800.881107949
800.954552564
801.026914613
801.098325669
801.168917932
801.238916924
801.307838101
801.375726573
801.443002729
801.510232636
801.577954184
801.646314821
801.715348038
801.784931095
801.854807189
801.924979496
801.995622286
802.066908784
802.139034572
802.212185893
802.285228852
802.357535946
802.429020652
802.499640617
802.569089554
802.635854392
802.699741921
802.760890434
802.819787203
802.877129583
802.933709989
802.990506728
803.04831407
803.107633557
803.168824899
803.232084995
803.297393139
803.36453367
803.4331281
803.502683127
803.572704405
803.64323951
803.714482591
803.786684077
803.860041787
803.933410642
804.006029202
804.077842578
804.148838739
804.219137758
804.287876669
804.354729125
804.419959367
804.484152963
804.547970398
804.61231872
804.677574048
804.744030407
804.811746817
804.880594748
804.950276489
805.020394936
805.090941012
805.162117588
805.234179337
805.307414931
805.382158297
805.458808946
805.537492841
805.615651454
805.69234741
805.767469156
805.840954011
805.912758431
805.982975082
806.049129049
806.110654847
806.167755856
806.22133278
806.27255401
806.322693771
806.373346486
806.425575068
806.480125207
806.53747217
806.597857274
806.661226474
806.727247712
806.795377159
806.864922578
806.935161854
807.006107144
807.078065179
807.151425633
807.226606475
807.304098382
807.384406259
807.465363541
807.544555052
807.621808723
807.697040099
807.770202015
807.841440538
807.909012946
807.970662561
808.026411764
808.077040473
808.123743367
808.167997651
808.211309122
808.255656966
808.302000574
808.351251103
808.403964025
808.460427912
808.520622178
808.584229127
808.650695
808.719296777
808.789205992
808.859758644
808.931133632
809.003639766
809.076627621
809.148874292
809.22022905
809.290568982
809.358287591
809.423092796
809.485129228
809.545001733
809.603542391
809.661674097
809.720627337
809.780923209
809.843058306
809.90726211
809.973532124
810.041623038
810.111106941
810.181422403
810.25221057
810.323685841
810.396125879
810.469847183
810.54522816
810.621786819
810.697466019
810.771953661
810.845203339
810.917163459
810.98796926
811.055926141
811.120581239
811.182181064
811.241514981
811.299552513
811.357365396
811.416202663
811.476570788
811.538912334
811.603422497
811.67003462
811.738460857
811.808228776
811.878755224
811.949768812
812.021503344
812.094245103
812.168312811
812.244076941
812.321897074
812.400051422
812.476898375
812.55233022
812.626301815
812.698768835
812.769925073
812.837954141
812.901998176
812.962229007
813.019421312
813.074579587
813.128817776
813.183534987
813.239621723
813.297707635
813.358176427
813.421216896
813.48673706
813.554405852
813.623741241
813.694157813
813.765098572
813.836670602
813.90911713
813.982744626
814.057882213
814.134822703
814.211873538
814.287768231
814.362419702
814.435804429
814.507921036
814.578844738
814.646817948
814.711595826
814.773470421
814.833218035
814.891781584
814.950187603
815.009585259
815.070442635
815.13317045
815.19795431
815.264744293
815.333293707
815.403193157
815.473927425
815.545085444
815.616806563
815.689294157
815.762790721
815.837563087
815.91381493
815.990056635
816.065355787
816.139676608
816.212995245
816.285323616
816.356802315
816.426626417
816.494123842
816.559501821
816.62330189
816.686148761
816.748702185
816.811784773
816.875686917
816.940649767
817.006733363
817.07383609
817.141719034
817.210019072
817.278384124
817.346179984
817.412994658
817.47845632
817.542282324
817.604307276
817.664499226
817.72293512
817.779788265
817.835311206
817.889794389
817.943535923
817.996801958
818.049810078
818.102732461
818.155687121
818.208704252
818.261753427
818.3147732
818.367673627
818.420443887
818.473131992
818.525935123
818.579070182
818.632839321
818.687580894
818.743660037
818.801420165
818.861142801
818.923007607
818.987067379
819.053228078
819.121255094
819.190802299
819.261436238
819.332664465
819.404244016
819.476322901
819.549057632
819.622616361
819.697130419
819.77155219
819.845359272
819.918524629
819.991055143
820.062982197
820.134215586
820.203978505
820.272358074
820.339621207
820.406187683
820.472505745
820.539151334
820.606346694
820.674252786
820.74286988
820.81206236
820.881559603
820.951039843
821.019844816
821.087480044
821.15340059
821.217111854
821.278190491
821.336315234
821.391294579
821.443109454
821.491918721
821.538047441
821.581975168
821.624315346
821.665789422
821.707263092
821.749688898
821.793644651
821.839712378
821.888369467
821.939911423
821.99444697
822.051871899
822.111911809
822.174094195
822.2378144
822.302382795
822.367179266
822.431331454
822.494219593
822.555454557
822.614834773
822.672339103
822.728156155
822.782653136
822.836352202
822.889904103
822.944185479
822.999670935
823.056872887
823.116182983
823.177836031
823.241897956
823.308254526
823.376625979
823.446597109
823.517663941
823.589297981
823.661342916
823.733968145
823.807367557
823.881743908
823.957319506
824.034340209
824.113097901
824.1939013
824.276949756
824.359788859
824.44120412
824.521099258
824.599426781
824.676173859
824.751350481
824.824941
824.89714267
824.966002872
825.030597633
825.090973034
825.147737225
825.201680974
825.253680353
825.30461509
825.355287743
825.40660361
825.458846405
825.512246127
825.566815995
825.62240209
825.678694885
825.735292061
825.791729064
825.847348989
825.901806924
825.954844463
826.006379382
826.056551732
826.105701259
826.154339877
826.203342903
826.253405855
826.305209773
826.35935576
826.416316628
826.4763617
826.539521948
826.605592441
826.674140124
826.744555887
826.816112009
826.888247699
826.961169729
827.034823562
827.108068115
827.180631205
827.251957421
827.320656677
827.386401211
827.449122375
827.508978001
827.56627979
827.621400473
827.674734486
827.726668078
827.77756739
827.827780972
827.877658952
827.92761976
827.978082957
828.029400333
828.081960448
828.136170795
828.192405096
828.250971812
828.312077553
828.3757813
828.441973866
828.510380177
828.580573512
828.652007742
828.724080349
828.796673575
828.870029665
828.944449996
829.020280117
829.097930188
829.177887361
829.258761127
829.338197273
829.415922434
829.491785096
829.565659756
829.637066307
829.702298956
829.760520344
829.811524004
829.855882739
829.894617105
829.929012639
829.960549319
829.99077684
830.021671517
830.054625684
830.090778094
830.131022391
830.176058425
830.226259195
830.281655485
830.341948878
830.406541085
830.474595087
830.545102244
830.616970841
830.689657232
830.763540666
830.839093346
830.916856973
830.997451414
831.081576175
831.16992763
831.259231784
831.345922493
831.429793715
831.510733749
831.588707885
831.663690321
831.735689136
831.800133735
831.856171164
831.904029506
831.945022943
831.980879477
832.013520521
832.04484272
832.077248759
832.112005537
832.150239815
832.192683684
832.239806311
832.291762165
832.348403719
832.409334541
832.473967791
832.541591837
832.611440988
832.682784331
832.754962441
832.827531032
832.900529101
832.974037307
833.048123618
833.12281556
833.198095443
833.273892411
833.350099712
833.426563736
833.503041152
833.579493764
833.655974021
833.732645573
833.809773879
833.887558147
833.965075504
834.0418863
834.117780733
834.192577094
834.266140909
834.337681248
834.404620458
834.466292796
834.522469433
834.573400707
834.619710365
834.662273322
834.702162683
834.740580526
834.778877314
834.818578969
834.860491718
834.905447754
834.954082323
835.006775688
835.063650376
835.124567478
835.189146162
835.256817733
835.32687654
835.398549227
835.471061608
835.54412356
835.617952582
835.692802623
835.768925951
835.846588949
835.926049709
836.007538679
836.089817359
836.171033056
836.251117834
836.330081129
836.407934268
836.484682745
836.560332856
836.634903211
836.708436813
836.780461095
836.849406693
836.915114301
836.97767178
837.037394461
837.094763624
837.150354273
837.204826066
837.258890448
837.313580526
837.369440664
837.427071139
837.486909469
837.549242731
837.614177513
837.681589147
837.7511642
837.822441184
837.894838694
837.967772633
838.041298709
838.115638784
838.19109409
838.267985256
838.346671925
838.427445493
838.508166251
838.587519832
838.665416272
838.741786112
838.816555848
838.889891543
838.95956038
839.024546863
839.084781184
839.140852179
839.19359626
839.2440285
839.293242579
839.342420232
839.392799573
839.444998161
839.499627819
839.557131244
839.617728642
839.681429217
839.748022185
839.817117189
839.888172117
839.960544747
840.033573205
840.107161798
840.181549368
840.25702547
840.333916134
840.412589075
840.493342662
840.574004684
840.653283845
840.731028986
840.807117943
840.881479216
840.953102577
841.018848474
841.078048806
841.130532572
841.176612509
841.21696279
841.252475786
841.284229873
841.313439169
841.341407036
841.369733723
841.399780315
841.432551885
841.468952513
841.509757188
841.555482536
841.606370985
841.662377757
841.723170893
841.788171201
841.856608658
841.927580856
842.000119578
842.07340094
842.147557351
842.222913859
842.299891449
842.378935334
842.460539995
842.545257047
842.633708947
842.726600682
842.824645207
842.923968076
843.020241703
843.113240859
843.202854488