/*--------------------------------*- C++ -*----------------------------------*\
  =========                 |
  \\      /  F ield         | OpenFOAM: The Open Source CFD Toolbox
   \\    /   O peration     | Website:  https://openfoam.org
    \\  /    A nd           | Version:  6
     \\/     M anipulation  |
\*---------------------------------------------------------------------------*/
FoamFile
{
    version     2.0;
    format      ascii;
    class       volVectorField;
    location    "0.0004225";
    object      U;
}
// * * * * * * * * * * * * * * * * * * * * * * * * * * * * * * * * * * * * * //

dimensions      [0 1 -1 0 0 0 0];

internalField   nonuniform List<vector> 
32000
(
(-0.000110619790117 -5.9641425678e-13 0)
(-0.000368827646285 1.69240971599e-12 0)
(-0.000621017761927 -1.3244674754e-12 0)
(-0.000901481905536 1.03418061955e-12 0)
(-0.00119490385801 -3.92280816323e-13 0)
(-0.00152178699286 7.42501559413e-13 0)
(-0.00185884116681 -1.00161583928e-12 0)
(-0.0022295314653 -1.24915803303e-12 0)
(-0.00261090094426 -1.79350003113e-12 0)
(-0.00300175892347 -4.11590978813e-13 0)
(-0.00337687077063 -2.4315722904e-13 0)
(-0.00372601039604 2.90308024717e-13 0)
(-0.0040265687974 -5.96506209228e-13 0)
(-0.00425773057597 -4.7393671227e-13 0)
(-0.00441267398484 -9.51740520145e-13 0)
(-0.00448313410876 -2.69086803097e-13 0)
(-0.00444586031033 -4.16605400737e-13 0)
(-0.00431657797108 1.39178014862e-13 0)
(-0.00408960697992 -2.49828299226e-13 0)
(-0.00376429598019 -1.18114421455e-13 0)
(-0.00334081952854 -5.63391321775e-13 0)
(-0.0028239182855 -3.35489164814e-13 0)
(-0.00222341616284 -4.95022929425e-13 0)
(-0.00155073674014 -2.47012665104e-13 0)
(-0.000824120318015 -2.47897790537e-13 0)
(-6.43800006371e-05 1.1980753921e-13 0)
(0.000697556484159 8.96832610717e-14 0)
(0.00144470847137 1.80004271874e-13 0)
(0.00216327017959 1.23204051416e-13 0)
(0.00282937892136 1.69806254521e-13 0)
(0.00342850329254 5.55272468873e-14 0)
(0.0039361949897 2.00311709992e-14 0)
(0.00428999567996 -7.38314672216e-14 0)
(0.00444184261646 -7.60211566554e-14 0)
(0.0043444982075 -1.31862766313e-13 0)
(0.00393776257503 -1.28830494936e-13 0)
(0.00332274170252 -9.74703066666e-14 0)
(0.00239186966968 2.28745132646e-14 0)
(0.00121589488308 -1.68512481838e-14 0)
(-0.000250764705644 9.38741221363e-14 0)
(-0.00197549380263 -4.5843649635e-14 0)
(-0.00396923711336 -6.14697657419e-15 0)
(-0.00623585291807 -2.83832421232e-13 0)
(-0.00875127797886 -2.31318282409e-13 0)
(-0.0114226681186 -3.63898640956e-13 0)
(-0.0142175420727 -3.75319995136e-13 0)
(-0.0170820151758 -4.3101987575e-13 0)
(-0.0199774847248 -3.6993443648e-13 0)
(-0.0228868271363 -3.57257835684e-13 0)
(-0.0258028413127 -2.64251419736e-13 0)
(-0.0287114119592 -3.43607864122e-13 0)
(-0.0316004158619 -3.00016728602e-13 0)
(-0.0344839171751 -3.74988535305e-13 0)
(-0.0373599767747 -5.11389192744e-13 0)
(-0.0401078204198 -6.51764801334e-13 0)
(-0.0426635416274 -8.03626175232e-13 0)
(-0.04500644478 -9.70585605408e-13 0)
(-0.0471157813513 -1.0453165247e-12 0)
(-0.048952727916 -1.09310360992e-12 0)
(-0.0505286153106 -1.08926819763e-12 0)
(-0.0518673154155 -1.02252709465e-12 0)
(-0.0529865112149 -9.19760316138e-13 0)
(-0.0539044734414 -7.89163890569e-13 0)
(-0.0546393240637 -6.3057530998e-13 0)
(-0.055207394848 -5.16170392312e-13 0)
(-0.0556144165681 -4.36710899136e-13 0)
(-0.0558795532578 -3.8084886963e-13 0)
(-0.0560342466481 -3.89789403563e-13 0)
(-0.0560643780821 -4.43885201057e-13 0)
(-0.0559995010013 -5.18468826383e-13 0)
(-0.0558705993691 -6.05939390391e-13 0)
(-0.0556816520201 -6.98405779249e-13 0)
(-0.0554455114513 -7.86052496876e-13 0)
(-0.0551868709336 -8.10345262221e-13 0)
(-0.0549138184465 -8.16083430966e-13 0)
(-0.0546315915481 -7.85969721181e-13 0)
(-0.0543314289551 -7.22423949545e-13 0)
(-0.0540128591459 -6.38939880208e-13 0)
(-0.0536691646662 -5.36571373374e-13 0)
(-0.0532896863673 -4.24949551902e-13 0)
(-0.0528642628875 -3.35734251665e-13 0)
(-0.0523804809092 -2.6998217193e-13 0)
(-0.0518273291108 -2.38955664078e-13 0)
(-0.0512024785554 -2.58866368743e-13 0)
(-0.0505488003693 -2.69074870804e-13 0)
(-0.0498865842541 -3.09070494566e-13 0)
(-0.049239019866 -3.71403075129e-13 0)
(-0.0486123728241 -4.29680661024e-13 0)
(-0.0480194090541 -4.66252406748e-13 0)
(-0.0474670626884 -5.04463415992e-13 0)
(-0.0470031809523 -5.34507673534e-13 0)
(-0.0466154692456 -5.0769417719e-13 0)
(-0.0463050194313 -4.86295038099e-13 0)
(-0.0460840008759 -4.50573669473e-13 0)
(-0.0459734158373 -3.72039685143e-13 0)
(-0.0459641998837 -2.99750743265e-13 0)
(-0.0460309427343 -2.19839083163e-13 0)
(-0.0462076201677 -1.40296559346e-13 0)
(-0.0465861365737 -7.7917700445e-14 0)
(-0.047254896663 -3.17002015689e-14 0)
(-0.0481546811607 2.16961891112e-14 0)
(-0.0490645549674 2.94393583996e-14 0)
(-0.049904411677 4.13109149097e-14 0)
(-0.0506360297344 5.16888957115e-14 0)
(-0.0512378683454 5.39184339029e-14 0)
(-0.051709808823 6.434417674e-14 0)
(-0.0520251261509 7.01837012961e-14 0)
(-0.0521888966902 6.81412379657e-14 0)
(-0.0522341952671 7.4920222343e-14 0)
(-0.0521464950221 8.89540061418e-14 0)
(-0.0519504205114 9.42282693801e-14 0)
(-0.0516923897672 1.16730920717e-13 0)
(-0.0513520582261 1.4188650483e-13 0)
(-0.0507261284106 1.60114714175e-13 0)
(-0.0499601046778 1.67872782047e-13 0)
(-0.0489647910475 1.46127316657e-13 0)
(-0.0476928926808 9.45916986941e-14 0)
(-0.046212310646 4.10764434892e-14 0)
(-0.0446320521674 -3.5006665434e-14 0)
(-0.0429079473404 -9.29497855595e-14 0)
(-0.04085489379 -1.7578319065e-13 0)
(-0.038544811677 -2.44276741261e-13 0)
(-0.0361447588556 -3.17149077411e-13 0)
(-0.0335466054092 -3.93281907953e-13 0)
(-0.0309596257808 -4.43471280666e-13 0)
(-0.028401004358 -4.95651935029e-13 0)
(-0.0258529709027 -5.14286913785e-13 0)
(-0.0233096904445 -5.07165594416e-13 0)
(-0.0207770166561 -4.75406656825e-13 0)
(-0.0182625515735 -4.23975651901e-13 0)
(-0.0157661351641 -3.49831618626e-13 0)
(-0.0133048512143 -2.59721048117e-13 0)
(-0.0108819472539 -1.58574992095e-13 0)
(-0.00849570512291 -5.23566077874e-14 0)
(-0.00615136217864 5.23021035224e-14 0)
(-0.0038395550064 1.56129252863e-13 0)
(-0.0015554371419 2.3613207829e-13 0)
(0.000700289784878 3.20726906415e-13 0)
(0.00293552100674 3.90388783528e-13 0)
(0.00515716546847 4.30829894872e-13 0)
(0.00736258753619 4.52299616321e-13 0)
(0.0095427867844 4.79313153554e-13 0)
(0.0117112280577 4.55641918486e-13 0)
(0.013859261057 4.39473233849e-13 0)
(0.0159926495593 3.95461561102e-13 0)
(0.0180854535985 3.52806263561e-13 0)
(0.0201782919274 3.09479515797e-13 0)
(0.0222565688542 2.60987532079e-13 0)
(0.024344212572 2.28447342393e-13 0)
(0.0263866969564 1.70300932727e-13 0)
(0.0284151349725 1.25414927246e-13 0)
(0.0304350751054 9.99992004851e-14 0)
(0.0324517282836 7.80394185037e-14 0)
(0.0344700682001 4.63780212619e-14 0)
(0.0364914646254 3.83109655685e-14 0)
(0.0385162444087 2.77954191509e-14 0)
(0.0405405764119 3.5792025793e-14 0)
(0.0425528581237 3.67282386665e-14 0)
(0.0445374943668 3.52737301734e-14 0)
(0.046480851118 2.40846675979e-14 0)
(0.0483230938269 2.28163332932e-14 0)
(0.0500230862387 1.2236395378e-14 0)
(0.051566670694 -8.64656912185e-15 0)
(0.0529417470613 -3.40898876967e-14 0)
(0.0541420274674 -6.55199041622e-14 0)
(0.0551676852986 -9.90670131143e-14 0)
(0.0560253512311 -1.5430528853e-13 0)
(0.056725766129 -1.94635563274e-13 0)
(0.0572827101037 -2.40007430877e-13 0)
(0.0577124672124 -2.76925789475e-13 0)
(0.0580279116873 -3.03103034234e-13 0)
(0.0582423123267 -3.25666884435e-13 0)
(0.0583641336245 -3.66761356296e-13 0)
(0.0583918999591 -3.79982102953e-13 0)
(0.0583335965706 -3.9708388336e-13 0)
(0.0582377664977 -3.89222034554e-13 0)
(0.0581393231908 -3.69685149611e-13 0)
(0.0580830006497 -3.54439370985e-13 0)
(0.0580863687438 -3.28077765088e-13 0)
(0.0581099770456 -2.7988804357e-13 0)
(0.0581914482473 -2.29224711531e-13 0)
(0.0583483927221 -1.64491698869e-13 0)
(0.0585922810505 -1.11454152141e-13 0)
(0.0589413850144 -4.3448880292e-14 0)
(0.0593987071163 1.84128523285e-14 0)
(0.0599764185673 7.05410357687e-14 0)
(0.0606857365276 1.29090372493e-13 0)
(0.0615195954521 1.90157943688e-13 0)
(0.0624983924953 2.46572688182e-13 0)
(0.0636072160172 2.62886473652e-13 0)
(0.0648620141475 3.17248621782e-13 0)
(0.0662529186089 3.23700080669e-13 0)
(0.0677873193758 3.48941223009e-13 0)
(0.0694565417298 3.71395042688e-13 0)
(0.0710849603573 3.64159100509e-13 0)
(0.0724912978779 3.59347556218e-13 0)
(0.0737067298366 3.44184028337e-13 0)
(0.0746899277885 3.29663140033e-13 0)
(0.0753710166723 3.21181935672e-13 0)
(0.0757362651131 3.03058109111e-13 0)
(0.075859617186 2.77427521008e-13 0)
(0.0758652466091 2.30822169558e-13 0)
(0.0757840531303 2.14210592882e-13 0)
(0.0755682637682 1.80454509762e-13 0)
(0.0751854231563 1.3083119745e-13 0)
(0.0746979657041 1.05721867746e-13 0)
(0.074092439936 7.50015517661e-14 0)
(0.0733383865442 3.06786389779e-14 0)
(0.0724054001553 -5.01151895331e-15 0)
(0.0712935994858 -2.81137075295e-14 0)
(0.0700021147977 -4.51335633591e-14 0)
(0.0685488045055 -6.99269630465e-14 0)
(0.0669412396815 -8.11433706793e-14 0)
(0.0651903698218 -1.03843900168e-13 0)
(0.0632993588632 -1.14221535373e-13 0)
(0.06127204047 -1.21207127384e-13 0)
(0.0591092417072 -1.42219621157e-13 0)
(0.0569517814279 -1.31856667935e-13 0)
(0.0549826055046 -1.37221231734e-13 0)
(0.0531514316314 -1.1300029635e-13 0)
(0.051465865163 -1.00938627905e-13 0)
(0.0499484970571 -8.30910181018e-14 0)
(0.0485709314035 -5.85695761055e-14 0)
(0.0472811929755 -2.40466914287e-14 0)
(0.0460639732804 9.3207737345e-16 0)
(0.0449427571676 1.8212592635e-14 0)
(0.043931576039 5.52898569121e-14 0)
(0.043010080574 9.01796861766e-14 0)
(0.0421428740528 1.24988459173e-13 0)
(0.041312234154 1.54416775864e-13 0)
(0.0405257258467 1.77092616632e-13 0)
(0.0398012154135 2.09400265913e-13 0)
(0.0391464625193 2.41220594346e-13 0)
(0.0385530208729 2.71966159081e-13 0)
(0.0380020152224 2.97420882513e-13 0)
(0.0374769455789 3.21249228293e-13 0)
(0.0369705748989 3.45425652385e-13 0)
(0.0364973044266 3.60408015949e-13 0)
(0.0360666639882 3.59619272111e-13 0)
(0.0356823856175 3.49999585816e-13 0)
(0.0353451263822 3.23307260372e-13 0)
(0.0350555229764 3.23389280649e-13 0)
(0.0348163888902 2.96890279066e-13 0)
(0.0346337663491 2.80894364725e-13 0)
(0.0345133125559 2.51293257434e-13 0)
(0.0344560443358 2.18631976423e-13 0)
(0.034463950669 1.98224344325e-13 0)
(0.0345239882481 1.72713770321e-13 0)
(0.0346264411096 1.44066797832e-13 0)
(0.0347996611315 1.17406682428e-13 0)
(0.0350436784325 8.33776390825e-14 0)
(0.0353709616459 5.94579762595e-14 0)
(0.0358063472986 3.30944362514e-14 0)
(0.0363338103011 2.91522938826e-14 0)
(0.0369840555713 3.63016923307e-15 0)
(0.0377423127609 -3.42498039821e-15 0)
(0.0386149062089 -9.35616292877e-15 0)
(0.0396165693392 -7.76907026705e-15 0)
(0.0407313129619 6.05453016598e-15 0)
(0.0419898382145 7.96996774557e-15 0)
(0.0433820621854 2.36168784675e-14 0)
(0.0449236770908 3.37953752344e-14 0)
(0.0466264965933 6.22809637603e-14 0)
(0.0484845536129 9.76367553155e-14 0)
(0.0505217950273 1.27117901686e-13 0)
(0.0527284288297 1.52478560953e-13 0)
(0.0551227667933 1.771339689e-13 0)
(0.0577067251883 2.10326757142e-13 0)
(0.0604852971356 2.4101812416e-13 0)
(0.0634721787476 2.64138549571e-13 0)
(0.0666637357917 2.76775255926e-13 0)
(0.0700775476707 2.85830255286e-13 0)
(0.0737105524196 3.15820789903e-13 0)
(0.0775785219015 2.93224851646e-13 0)
(0.0816842551036 2.998012996e-13 0)
(0.0860385140252 3.00482294327e-13 0)
(0.0906434467838 2.98852831102e-13 0)
(0.0953882796177 2.77465776761e-13 0)
(0.0997866956122 2.57913752771e-13 0)
(0.103793572481 2.36664299408e-13 0)
(0.107426824481 2.15705541676e-13 0)
(0.110659473118 1.83469091152e-13 0)
(0.11345652163 1.54177285273e-13 0)
(0.115807023777 1.2524387371e-13 0)
(0.117724736906 1.02030966375e-13 0)
(0.119232297129 6.85979345462e-14 0)
(0.120358058406 3.23152431749e-14 0)
(0.12114855561 1.26866575881e-15 0)
(0.121667518935 -2.51470941181e-14 0)
(0.121973840298 -4.65794982869e-14 0)
(0.122112214633 -6.54442526531e-14 0)
(0.122139526299 -8.65269735382e-14 0)
(0.122077081001 -9.99212036998e-14 0)
(0.121844547457 -1.0288779503e-13 0)
(0.121489337284 -1.06695190664e-13 0)
(0.121014013779 -9.87550572028e-14 0)
(0.120391999417 -9.3093073575e-14 0)
(0.119609302954 -8.25420192885e-14 0)
(0.118654949322 -6.44988745874e-14 0)
(0.117526160905 -4.56808652934e-14 0)
(0.116223680673 -2.45841000868e-14 0)
(0.114789151966 -1.16710481647e-14 0)
(0.113537447629 2.12708513486e-14 0)
(0.112579109081 4.88560528491e-14 0)
(0.11187140653 7.96034497973e-14 0)
(0.11135844846 1.20812340052e-13 0)
(0.110994822207 1.4567377285e-13 0)
(0.110753488221 1.69490762646e-13 0)
(0.110603595808 2.03361013457e-13 0)
(0.110545238486 2.28135924876e-13 0)
(0.110612319603 2.4152233122e-13 0)
(0.110790276856 2.51195648757e-13 0)
(0.111086284268 2.76100883042e-13 0)
(0.111521915531 2.77305673772e-13 0)
(0.112086487958 2.98492651843e-13 0)
(0.112798052326 2.9443559811e-13 0)
(0.113640289995 2.98472006637e-13 0)
(0.114622747332 3.00040055719e-13 0)
(0.115727628926 2.9469084721e-13 0)
(0.116957888977 2.82423072035e-13 0)
(0.118297039339 2.80239351998e-13 0)
(0.119742113455 2.66613692008e-13 0)
(0.12128045546 2.55840976524e-13 0)
(0.122908190418 2.37043297667e-13 0)
(0.124622754873 2.23782773974e-13 0)
(0.126434253808 2.03788430856e-13 0)
(0.128269417981 1.86646475273e-13 0)
(0.129889958625 1.67393743482e-13 0)
(0.131270248634 1.54869565095e-13 0)
(0.132423853672 1.43114444833e-13 0)
(0.133361364587 1.23142304833e-13 0)
(0.134080590902 1.22612555298e-13 0)
(0.134582191467 1.06489926003e-13 0)
(0.134883136363 9.6141295684e-14 0)
(0.135017884756 9.72304602202e-14 0)
(0.135044675022 9.79317140485e-14 0)
(0.134998956732 1.06085276163e-13 0)
(0.134854330383 1.01019521844e-13 0)
(0.134627852686 1.05657158554e-13 0)
(0.134274077663 1.12000659817e-13 0)
(0.133754747188 1.1681896557e-13 0)
(0.133044117424 1.26103987968e-13 0)
(0.132106209273 1.39086311963e-13 0)
(0.130930273953 1.52601197415e-13 0)
(0.129486684775 1.66165283784e-13 0)
(0.127768491835 1.76717583139e-13 0)
(0.125754262839 1.83163969322e-13 0)
(0.123434983121 1.92674471853e-13 0)
(0.120797731344 2.06050905723e-13 0)
(0.117836194335 2.12068453689e-13 0)
(0.114544826309 2.15135118018e-13 0)
(0.110929360168 2.23264828853e-13 0)
(0.106984372525 2.39882846033e-13 0)
(0.102729367203 2.38738634844e-13 0)
(0.0981559780602 2.32778522446e-13 0)
(0.0932889948881 2.28080859366e-13 0)
(0.0881196476844 2.18581093417e-13 0)
(0.0826652286923 2.16399049124e-13 0)
(0.0772411591025 2.05741259368e-13 0)
(0.0723147847248 1.83432473863e-13 0)
(0.0678421247896 1.61658536195e-13 0)
(0.0637570009962 1.48589032901e-13 0)
(0.0599905454694 1.38973381694e-13 0)
(0.056472948418 1.13116818603e-13 0)
(0.0531359763731 8.82008306237e-14 0)
(0.049920184384 6.60322804894e-14 0)
(0.0467795288711 4.50786085045e-14 0)
(0.043680436762 9.32126344466e-15 0)
(0.040597199103 -8.6233054683e-15 0)
(0.0375116903333 -3.62591370463e-14 0)
(0.0344125002362 -6.1295988936e-14 0)
(0.031311481203 -8.15715158898e-14 0)
(0.0281774634313 -9.51263001787e-14 0)
(0.0249099603288 -1.27048180926e-13 0)
(0.0216506984878 -1.3567066246e-13 0)
(0.0181233272379 -1.4344672829e-13 0)
(0.0144497392766 -1.65755540566e-13 0)
(0.0105351968957 -1.66142698961e-13 0)
(0.00612285447437 -1.78968367197e-13 0)
(0.00156784239892 -1.74011937655e-13 0)
(-0.0039352898192 -1.76479582086e-13 0)
(-0.00948635502692 -1.77587213598e-13 0)
(-0.0164863624123 -1.71019152474e-13 0)
(-0.0234795913261 -1.65690748772e-13 0)
(-0.0324008551621 -1.45591308059e-13 0)
(-0.0414153890715 -1.36757194949e-13 0)
(-0.0527127287975 -1.27149110457e-13 0)
(-0.0643920526817 -1.07050629881e-13 0)
(-0.0785923828733 -9.23807787744e-14 0)
(-0.0936218477306 -7.75104152794e-14 0)
(-0.111335378303 -5.93062091633e-14 0)
(-0.130432932362 -4.72494619712e-14 0)
(-0.152354663289 -3.19072117428e-14 0)
(-0.176267000939 -6.76396825834e-15 0)
(-0.203170798725 1.3174830617e-14 0)
(-0.232675683887 3.32874053557e-14 0)
(-0.265407699582 6.32632006459e-14 0)
(-0.301324688966 8.20080348817e-14 0)
(-0.340801196826 9.89801462621e-14 0)
(-0.384008879526 1.13612297981e-13 0)
(-0.429599765888 1.27222158717e-13 0)
(-0.469342821762 1.42040304548e-13 0)
(-0.501756941065 1.55528832566e-13 0)
(-0.527444127221 1.62402523591e-13 0)
(-0.547094440076 1.75912906441e-13 0)
(-0.561486354412 1.84673556646e-13 0)
(-0.571441103269 1.89659358246e-13 0)
(-0.577805638386 1.97278298656e-13 0)
(-0.581429640852 1.92082659844e-13 0)
(-0.583128180209 2.0052676076e-13 0)
(-0.583649294331 1.95639961998e-13 0)
(-0.583726257277 1.99668456277e-13 0)
(-0.583334587394 1.92970737769e-13 0)
(-0.582201473261 1.80225119783e-13 0)
(-0.57992820132 1.79463291197e-13 0)
(-0.576200730328 1.65657047844e-13 0)
(-0.570630944543 1.63384827176e-13 0)
(-0.562939432246 1.48625664824e-13 0)
(-0.552797049152 1.46685107808e-13 0)
(-0.539991538055 1.33939740107e-13 0)
(-0.524301838218 1.30511944879e-13 0)
(-0.505619168959 1.14524043683e-13 0)
(-0.483867296779 9.90274130029e-14 0)
(-0.459071619468 8.67891668431e-14 0)
(-0.431319050838 7.04764293294e-14 0)
(-0.400783996977 6.2511071532e-14 0)
(-0.367711813164 5.01531486149e-14 0)
(-0.332417371515 3.45865458831e-14 0)
(-0.295276846706 2.58864527647e-14 0)
(-0.257055096953 6.75082329778e-15 0)
(-0.220416287269 -2.32544290269e-15 0)
(-0.185505270198 -1.9740794011e-14 0)
(-0.151677347062 -1.96148788114e-14 0)
(-0.118489384686 -3.24325120894e-14 0)
(-0.0856383432879 -5.16425347866e-14 0)
(-0.0529301190634 -5.18792096998e-14 0)
(-0.0202566469128 -5.62959544532e-14 0)
(0.0124210473655 -6.4828047469e-14 0)
(0.0451472775836 -6.97826003843e-14 0)
(0.0779887687492 -8.40476535682e-14 0)
(0.111049333544 -8.8448852505e-14 0)
(0.144443503439 -9.38742601611e-14 0)
(0.178312431305 -9.68392840736e-14 0)
(0.212795695224 -1.06186185906e-13 0)
(0.248042184844 -1.13628530414e-13 0)
(0.284186433797 -1.1974206673e-13 0)
(0.321353455327 -1.22159822097e-13 0)
(0.359642317915 -1.24847878074e-13 0)
(0.399127391018 -1.30959425638e-13 0)
(0.439849601517 -1.36958619932e-13 0)
(0.481817238983 -1.44175926516e-13 0)
(0.525003569489 -1.48328898736e-13 0)
(0.569349564383 -1.49313104392e-13 0)
(0.614765702685 -1.45925896797e-13 0)
(0.661136393657 -1.63372310767e-13 0)
(0.70806134041 -1.58883238131e-13 0)
(0.753933137236 -1.64147596135e-13 0)
(0.79861595385 -1.70312015305e-13 0)
(0.842378720236 -1.74609239367e-13 0)
(0.885424096317 -1.7527623555e-13 0)
(0.927912783337 -1.81498163409e-13 0)
(0.969973410998 -1.77699750032e-13 0)
(1.01170991591 -1.84802363665e-13 0)
(1.05320599628 -1.85809661398e-13 0)
(1.09452782194 -2.00753158775e-13 0)
(1.13572719146 -1.92773000699e-13 0)
(1.17684571375 -2.14871726464e-13 0)
(1.21791539348 -2.03553085939e-13 0)
(1.25895850163 -2.14046931577e-13 0)
(1.29998877771 -2.08677240856e-13 0)
(1.34101374292 -2.20296264998e-13 0)
(1.38203783571 -2.12524443452e-13 0)
(1.42306784716 -2.25244359997e-13 0)
(1.46411183489 -2.15902677001e-13 0)
(1.50518130264 -2.26103032669e-13 0)
(1.54628991696 -2.19454280088e-13 0)
(1.58745369521 -2.23138784321e-13 0)
(1.62869001962 -2.25407242955e-13 0)
(1.6700170999 -2.263973124e-13 0)
(1.71145338915 -2.15578144123e-13 0)
(1.75301599275 -2.21816852054e-13 0)
(1.79472169845 -2.14450296045e-13 0)
(1.83658312284 -2.06861150858e-13 0)
(1.87861226771 -2.0162763376e-13 0)
(1.92081437636 -1.95178037891e-13 0)
(1.96319396229 -1.90320488322e-13 0)
(2.0057478681 -1.80469118063e-13 0)
(2.04847247953 -1.79918986387e-13 0)
(2.09135746447 -1.66334618212e-13 0)
(2.1343916035 -1.55857887601e-13 0)
(2.1775585266 -1.48115731924e-13 0)
(2.22083920112 -1.41535906284e-13 0)
(2.26421206818 -1.31659059769e-13 0)
(2.30765374724 -1.21844068923e-13 0)
(2.35113685342 -1.13381463672e-13 0)
(2.39461672565 -9.98841155386e-14 0)
(2.43802584872 -9.27705905879e-14 0)
(2.48138770178 -7.90037936301e-14 0)
(2.52471193477 -7.36182076769e-14 0)
(2.56800382042 -5.60204231552e-14 0)
(2.61126991968 -4.12952784099e-14 0)
(2.65451597898 -3.3784303557e-14 0)
(2.69774815685 -1.47053142916e-14 0)
(2.74097379506 -1.985897589e-15 0)
(2.78420304245 4.89153193302e-15 0)
(2.82744249899 1.13891105277e-14 0)
(2.87070479891 2.60377020882e-14 0)
(2.91399865961 3.045209104e-14 0)
(2.95733740333 4.43140213937e-14 0)
(3.00072877563 4.69134679735e-14 0)
(3.04418219012 4.96004933134e-14 0)
(3.08770205662 5.8886614041e-14 0)
(3.13129309654 5.7662959603e-14 0)
(3.17495630831 6.47028654674e-14 0)
(3.21869207569 6.80524239501e-14 0)
(3.26249834937 7.32801783897e-14 0)
(3.30637291276 6.9960965689e-14 0)
(3.35031243377 7.9537159967e-14 0)
(3.39431510121 7.78782391954e-14 0)
(3.438374614 7.41811307163e-14 0)
(3.48241607051 7.30261141774e-14 0)
(3.5263176904 7.08141920961e-14 0)
(3.57008673331 6.67555782019e-14 0)
(3.61373400929 6.24285025821e-14 0)
(3.65727246374 5.67812382131e-14 0)
(3.7007157863 5.09740329021e-14 0)
(3.74407747771 5.20609736109e-14 0)
(3.78737482225 4.08798266926e-14 0)
(3.83062534135 3.75187483583e-14 0)
(3.87384290742 2.40123654935e-14 0)
(3.91703990702 2.17447209276e-14 0)
(3.96022621056 6.70759236118e-15 0)
(4.00341434444 -4.88338217248e-15 0)
(4.0466094291 -1.47455484774e-14 0)
(4.0898150633 -2.98821669152e-14 0)
(4.1330336622 -3.83886308888e-14 0)
(4.17626665021 -4.57377459153e-14 0)
(4.21951439349 -6.69650527067e-14 0)
(4.26277658083 -7.20388568195e-14 0)
(4.30605230495 -8.14870305748e-14 0)
(4.34933898204 -9.01471690955e-14 0)
(4.39263026908 -1.05215541695e-13 0)
(4.43591897207 -1.10068506635e-13 0)
(4.47919809575 -1.22626869985e-13 0)
(4.52245730197 -1.45899262936e-13 0)
(4.56568912423 -1.50792580298e-13 0)
(4.60888880147 -1.66558695192e-13 0)
(4.65205335431 -1.71028906659e-13 0)
(4.69518098537 -1.79143840864e-13 0)
(4.738270699 -1.86759231878e-13 0)
(4.78132207924 -1.92349037347e-13 0)
(4.82433524627 -1.97517220871e-13 0)
(4.86731076407 -2.10031749163e-13 0)
(4.9102495651 -2.15932120856e-13 0)
(4.953152877 -2.21652170615e-13 0)
(4.99602219948 -2.26422952569e-13 0)
(5.03885919049 -2.28054886803e-13 0)
(5.08166562053 -2.35291517644e-13 0)
(5.12444331105 -2.36542556704e-13 0)
(5.16719413582 -2.37685703628e-13 0)
(5.20992001587 -2.41976885977e-13 0)
(5.25262288925 -2.47142467598e-13 0)
(5.29530463281 -2.47256531036e-13 0)
(5.33796722292 -2.53746633688e-13 0)
(5.38061259183 -2.50990286562e-13 0)
(5.42324267488 -2.51510748769e-13 0)
(5.46585935904 -2.46896436225e-13 0)
(5.50846446949 -2.43317210812e-13 0)
(5.55105978866 -2.42022872424e-13 0)
(5.59364698377 -2.33971510351e-13 0)
(5.63622795895 -2.32533713927e-13 0)
(5.67880490733 -2.30161460598e-13 0)
(5.72138113037 -2.25646811656e-13 0)
(5.76396805585 -2.20419236234e-13 0)
(5.80657135293 -2.14338795328e-13 0)
(5.84919460453 -2.06512634567e-13 0)
(5.89183893853 -1.99202718756e-13 0)
(5.93450434263 -1.89935697953e-13 0)
(5.97719005978 -1.82662786871e-13 0)
(6.01989484087 -1.76559188248e-13 0)
(6.06261721386 -1.67325787963e-13 0)
(6.10535558702 -1.59896166705e-13 0)
(6.1481083317 -1.5101723984e-13 0)
(6.19087385719 -1.43622126919e-13 0)
(6.23365070401 -1.35364246733e-13 0)
(6.27643755788 -1.26328472278e-13 0)
(6.31923328867 -1.19103628899e-13 0)
(6.36203698563 -1.15066099363e-13 0)
(6.40484792752 -1.07899276228e-13 0)
(6.44766557055 -9.51416684422e-14 0)
(6.49048949784 -8.60869297356e-14 0)
(6.53331949868 -9.08527274108e-14 0)
(6.57615543131 -7.43119148794e-14 0)
(6.61899699097 -7.02037976603e-14 0)
(6.66184356879 -5.69594906653e-14 0)
(6.70469424842 -5.31444750031e-14 0)
(6.74754495448 -4.0501618127e-14 0)
(6.79039135539 -3.68465967168e-14 0)
(6.83323411053 -2.89916903314e-14 0)
(6.87607422352 -2.42185547416e-14 0)
(6.91891295403 -1.81743349468e-14 0)
(6.96175128064 -1.13687044569e-14 0)
(7.0045896036 -9.2349183088e-15 0)
(7.04742860177 -5.3425724474e-15 0)
(7.09026923262 -1.83728088356e-17 0)
(7.13311040071 6.41685917662e-15 0)
(7.17594690918 9.06775536415e-15 0)
(7.21877494613 1.20103698486e-14 0)
(7.26159102129 1.84165880114e-14 0)
(7.30439193009 2.65413404113e-14 0)
(7.34717445237 2.63844413146e-14 0)
(7.38993544863 2.63004180418e-14 0)
(7.43267206304 2.62520785449e-14 0)
(7.47538156564 2.61962065059e-14 0)
(7.51806157411 2.6106275402e-14 0)
(7.56071014954 2.59351815331e-14 0)
(7.6033257461 2.56341449214e-14 0)
(7.64590729411 2.72078043528e-14 0)
(7.68845413509 2.73034206851e-14 0)
(7.73096603484 2.58599967952e-14 0)
(7.77344321338 2.43386853019e-14 0)
(7.81588610913 2.27133652899e-14 0)
(7.85829553933 2.09385825274e-14 0)
(7.90067243124 1.90039408905e-14 0)
(7.94301794899 1.72273103768e-14 0)
(7.98533327873 1.48834049788e-14 0)
(8.02761973177 1.17726508459e-14 0)
(8.06987856537 8.97726341471e-15 0)
(8.11211111179 6.34035704099e-15 0)
(8.15431869675 3.51412546104e-15 0)
(8.19650267508 1.52865534598e-15 0)
(8.23866447069 -1.58194031926e-15 0)
(8.28080554057 -6.02603609768e-15 0)
(8.32292743114 -9.74141905906e-15 0)
(8.36503189802 -1.21843480142e-14 0)
(8.40712082498 -1.67863922559e-14 0)
(8.44919638708 -2.20328236665e-14 0)
(8.49126102444 -2.5470249244e-14 0)
(8.53331733204 -2.94299849144e-14 0)
(8.57536809913 -3.34854272399e-14 0)
(8.61741621538 -3.6226520381e-14 0)
(8.65947038691 -4.04338967892e-14 0)
(8.7015445544 -4.52793295732e-14 0)
(8.74364350401 -4.75690194053e-14 0)
(8.78577027057 -5.43766955341e-14 0)
(8.82792652825 -6.11173398451e-14 0)
(8.87011284871 -6.7382297946e-14 0)
(8.91232922858 -7.32575326284e-14 0)
(8.95457517191 -7.906548586e-14 0)
(8.99684972512 -8.66172102392e-14 0)
(9.0391515719 -9.54082049725e-14 0)
(9.08147901484 -1.01068683523e-13 0)
(9.12382996086 -1.05611173782e-13 0)
(9.16620192224 -1.05153093234e-13 0)
(9.20859203623 -1.04752787987e-13 0)
(9.25099721451 -1.04341685074e-13 0)
(9.29341419407 -1.03910877313e-13 0)
(9.33583957672 -1.03442947915e-13 0)
(9.378259681 -1.02947388928e-13 0)
(9.42066248166 -1.02446353898e-13 0)
(9.46304504089 -1.0197263824e-13 0)
(9.50540528431 -1.01783216156e-13 0)
(9.54774219946 -1.01442912293e-13 0)
(9.59005562315 -1.0095594869e-13 0)
(9.63234603556 -1.01906029237e-13 0)
(9.67461444468 -1.01965385019e-13 0)
(9.71686237256 -1.0135226567e-13 0)
(9.75909175416 -1.00711917995e-13 0)
(9.80130476983 -1.00074724777e-13 0)
(9.84350369463 -9.94326559831e-14 0)
(9.88569084026 -9.87889787431e-14 0)
(9.92786843432 -9.81390343738e-14 0)
(9.97003836337 -9.7671599807e-14 0)
(10.012202118 -9.71611382212e-14 0)
(10.0543606784 -9.65861922585e-14 0)
(10.0965145045 -9.60648958559e-14 0)
(10.1386633226 -9.55310555854e-14 0)
(10.1808064097 -9.48829520593e-14 0)
(10.2229425775 -9.41953491058e-14 0)
(10.2650703507 -9.35080508917e-14 0)
(10.3071881487 -9.28000108616e-14 0)
(10.3492945427 -9.20934522557e-14 0)
(10.3913883063 -9.12431141405e-14 0)
(10.4334688162 -9.04726446985e-14 0)
(10.4755360722 -8.97564070333e-14 0)
(10.5175908897 -8.90669797088e-14 0)
(10.5596350352 -8.83772310751e-14 0)
(10.6016714399 -8.76712589245e-14 0)
(10.6437039379 -8.69349620325e-14 0)
(10.6857430498 -8.62092965025e-14 0)
(10.7278031238 -8.54888106961e-14 0)
(10.76989033 -8.47680709089e-14 0)
(10.8120087174 -8.40384891692e-14 0)
(10.8541602462 -8.3314733508e-14 0)
(10.8963447798 -8.25900130583e-14 0)
(10.9385604478 -8.18440411052e-14 0)
(10.9808040225 -8.11081315442e-14 0)
(11.0230708617 -8.03711855707e-14 0)
(11.0653551566 -7.96243081423e-14 0)
(11.1076505008 -7.88686855362e-14 0)
(11.1499447582 -7.81230851397e-14 0)
(11.192217882 -7.73771911874e-14 0)
(11.2344624895 -7.66312217756e-14 0)
(11.276672305 -7.58757981591e-14 0)
(11.3188432419 -7.51098473931e-14 0)
(11.3609724426 -7.4349243084e-14 0)
(11.4030580988 -7.35850823025e-14 0)
(11.4450993086 -7.2826638456e-14 0)
(11.4870956868 -7.20529173614e-14 0)
(11.5290472909 -7.12706832472e-14 0)
(11.570954298 -7.04841359092e-14 0)
(11.6128165314 -6.96932077917e-14 0)
(11.6546335217 -6.87425197838e-14 0)
(11.6964040749 -6.88453642912e-14 0)
(11.738126181 -7.06286782804e-14 0)
(11.7797969822 -6.96722060985e-14 0)
(11.8214127772 -6.8718061557e-14 0)
(11.8629691404 -6.77710194352e-14 0)
(11.904461137 -6.68323792171e-14 0)
(11.9458836822 -6.59012317354e-14 0)
(11.987231775 -6.49760932609e-14 0)
(12.0285011061 -6.40558930325e-14 0)
(12.0696884784 -6.31301597816e-14 0)
(12.1107922425 -6.22089260909e-14 0)
(12.151812735 -6.12996123564e-14 0)
(12.1927526225 -6.03851350421e-14 0)
(12.2336170907 -5.94753906185e-14 0)
(12.2744140181 -5.85754513593e-14 0)
(12.315153826 -5.76703223907e-14 0)
(12.3558493018 -5.67706032054e-14 0)
(12.3965155691 -5.58721039217e-14 0)
(12.4371687739 -5.49690303692e-14 0)
(12.4778400527 -5.40766861034e-14 0)
(12.5185539844 -5.31866850133e-14 0)
(12.5593286123 -5.2301057089e-14 0)
(12.6001776598 -5.14088168067e-14 0)
(12.641112485 -5.05114115201e-14 0)
(12.682140637 -4.96302573744e-14 0)
(12.7232658232 -4.87440631597e-14 0)
(12.7644878008 -4.78685899422e-14 0)
(12.8058019984 -4.84514301338e-14 0)
(12.8471996676 -4.93466615355e-14 0)
(12.8886681774 -4.95054281057e-14 0)
(12.9301911045 -4.84321492228e-14 0)
(12.9717485489 -4.75527352177e-14 0)
(13.0133206328 -4.78333342945e-14 0)
(13.0548681349 -4.79989818973e-14 0)
(13.0963568929 -4.8041615957e-14 0)
(13.1377625852 -4.79790528582e-14 0)
(13.1790626538 -4.78018949092e-14 0)
(13.2202358844 -4.75182168975e-14 0)
(13.2612640973 -4.71258020397e-14 0)
(13.302132105 -4.66302472363e-14 0)
(13.3428286446 -4.56565794701e-14 0)
(13.3833464598 -4.50219718949e-14 0)
(13.4236825292 -4.42923074514e-14 0)
(13.463838277 -4.3468039451e-14 0)
(13.5038193526 -4.25625588203e-14 0)
(13.5436353724 -4.15755374053e-14 0)
(13.5832995119 -4.05096634213e-14 0)
(13.6228280017 -3.93807140138e-14 0)
(13.6622394537 -3.81721231851e-14 0)
(13.7015541207 -3.6920791067e-14 0)
(13.7407931093 -3.41562843508e-14 0)
(13.7799776191 -3.11880528955e-14 0)
(13.8191283341 -3.00157405364e-14 0)
(13.858264477 -2.87487204787e-14 0)
(13.897415531 -2.95451210476e-14 0)
(13.9366072634 -2.52282321019e-14 0)
(13.9758537214 -2.14184871183e-14 0)
(14.0151647417 -1.83633952485e-14 0)
(14.0545479726 -1.51269715384e-14 0)
(14.0940084159 -1.16662842593e-14 0)
(14.133549256 -7.92965524172e-15 0)
(14.1731725183 -3.83275086629e-15 0)
(14.2128794381 0 0)
(14.2526709963 0 0)
(14.2925482389 0 0)
(14.3325127325 0 0)