/*--------------------------------*- C++ -*----------------------------------*\
  =========                 |
  \\      /  F ield         | OpenFOAM: The Open Source CFD Toolbox
   \\    /   O peration     | Website:  https://openfoam.org
    \\  /    A nd           | Version:  6
     \\/     M anipulation  |
\*---------------------------------------------------------------------------*/
FoamFile
{
    version     2.0;
    format      ascii;
    class       volScalarField;
    location    "0.0005";
    object      H;
}
// * * * * * * * * * * * * * * * * * * * * * * * * * * * * * * * * * * * * * //

dimensions      [0 0 0 0 0 0 0];

internalField   nonuniform List<scalar> 
32000
(
1.41912576859e-05
1.41912535663e-05
1.41912527158e-05
1.41912523317e-05
1.41912517433e-05
1.41912507828e-05
1.41912509574e-05
1.41912503523e-05
1.41912500772e-05
1.41912494288e-05
1.41912502356e-05
1.41912477403e-05
1.41912437503e-05
1.4191241324e-05
1.41912419974e-05
1.41912443817e-05
1.41912453435e-05
1.41912469295e-05
1.41912473556e-05
1.41912445767e-05
1.41912452497e-05
1.41912482838e-05
1.41912479899e-05
1.4191246587e-05
1.41912465088e-05
1.41912461289e-05
1.41912450764e-05
1.41912463217e-05
1.41912483744e-05
1.41912452272e-05
1.41912402652e-05
1.41912362949e-05
1.41912340791e-05
1.41912334841e-05
1.41912356794e-05
1.41912356463e-05
1.41912353424e-05
1.41912402878e-05
1.41912446341e-05
1.41912432313e-05
1.41912386597e-05
1.41912327474e-05
1.41912244703e-05
1.41912121058e-05
1.41911999091e-05
1.41911883837e-05
1.41911817748e-05
1.41911807844e-05
1.4191182426e-05
1.41911830139e-05
1.41911815611e-05
1.4191180517e-05
1.41911785527e-05
1.41911712082e-05
1.41911647272e-05
1.41911604544e-05
1.41911535531e-05
1.41911495104e-05
1.4191142465e-05
1.41911335229e-05
1.41911291691e-05
1.41911290912e-05
1.41911318065e-05
1.41911312908e-05
1.41911266468e-05
1.41911201927e-05
1.41911166607e-05
1.41911109933e-05
1.41911066518e-05
1.41910982336e-05
1.41910907302e-05
1.41910848231e-05
1.41910794877e-05
1.41910725612e-05
1.41910610136e-05
1.41910478443e-05
1.41910347461e-05
1.41910145618e-05
1.41910003223e-05
1.41909834302e-05
1.41909751197e-05
1.41909668535e-05
1.41909632993e-05
1.41909620086e-05
1.41909642469e-05
1.41909644963e-05
1.41909587459e-05
1.41909475462e-05
1.41909324995e-05
1.41909169738e-05
1.41908855873e-05
1.41908460166e-05
1.41908191945e-05
1.41907923653e-05
1.41907715466e-05
1.41907592023e-05
1.41907514036e-05
1.41907465699e-05
1.41907469571e-05
1.4190754496e-05
1.41907574129e-05
1.41907527221e-05
1.41907439663e-05
1.41907329836e-05
1.41907222952e-05
1.41907050155e-05
1.41906801421e-05
1.41906616828e-05
1.41906450444e-05
1.41906329098e-05
1.41906228472e-05
1.41906144568e-05
1.41906079476e-05
1.41905988583e-05
1.41905889926e-05
1.41905786358e-05
1.41905594477e-05
1.41905332522e-05
1.41905158743e-05
1.41905041995e-05
1.41904934984e-05
1.41904877532e-05
1.41904851618e-05
1.4190484296e-05
1.41904846194e-05
1.41904878229e-05
1.4190496395e-05
1.41905063807e-05
1.41905130704e-05
1.41905162027e-05
1.41905162873e-05
1.41905144835e-05
1.41905104602e-05
1.41905035751e-05
1.41904897633e-05
1.41904676483e-05
1.41904533395e-05
1.41904412603e-05
1.41904111254e-05
1.4190373816e-05
1.41903109374e-05
1.41902572531e-05
1.41902232805e-05
1.41902088094e-05
1.41902020857e-05
1.41901985738e-05
1.41901979706e-05
1.41902002612e-05
1.41902073152e-05
1.4190219518e-05
1.41902270169e-05
1.41902300163e-05
1.41902351987e-05
1.41902372761e-05
1.41902356884e-05
1.41902320269e-05
1.4190220661e-05
1.41901967828e-05
1.41901679614e-05
1.41901396526e-05
1.4190116879e-05
1.41900979379e-05
1.41900864149e-05
1.41900785317e-05
1.41900731821e-05
1.4190069549e-05
1.41900667512e-05
1.41900642248e-05
1.41900618907e-05
1.41900583466e-05
1.41900509339e-05
1.41900373709e-05
1.41900137042e-05
1.41899778324e-05
1.41899319633e-05
1.41898746554e-05
1.41898094168e-05
1.41897493998e-05
1.41896949952e-05
1.41896467674e-05
1.41896137189e-05
1.41895985174e-05
1.41895939981e-05
1.41895934078e-05
1.41895954799e-05
1.4189600369e-05
1.41896069485e-05
1.41896121706e-05
1.41896170406e-05
1.41896295736e-05
1.41896470805e-05
1.41896551749e-05
1.41896565784e-05
1.41896542551e-05
1.41896448909e-05
1.4189632429e-05
1.41896217921e-05
1.41896134693e-05
1.41895907796e-05
1.41895532423e-05
1.41895039861e-05
1.41894513504e-05
1.41894049161e-05
1.4189370641e-05
1.41893474394e-05
1.41893312222e-05
1.41893181879e-05
1.41893071352e-05
1.4189298465e-05
1.41892914987e-05
1.41892860389e-05
1.41892805348e-05
1.41892741875e-05
1.41892656968e-05
1.41892498836e-05
1.41892242452e-05
1.41891884589e-05
1.41891417082e-05
1.41890830196e-05
1.41890146827e-05
1.41889465652e-05
1.41888945343e-05
1.41888138732e-05
1.41887764002e-05
1.41887470604e-05
1.41887223138e-05
1.41887039121e-05
1.41886852504e-05
1.4188670547e-05
1.41886568448e-05
1.41886500346e-05
1.41886464696e-05
1.4188644423e-05
1.41886415189e-05
1.41886320166e-05
1.41886223302e-05
1.41886145037e-05
1.41886097884e-05
1.41885918287e-05
1.41885590289e-05
1.41885239915e-05
1.41884883649e-05
1.41884489574e-05
1.41884063459e-05
1.41883584931e-05
1.41883086858e-05
1.41882635479e-05
1.41882239293e-05
1.41881888161e-05
1.41881569376e-05
1.41881263121e-05
1.41880957911e-05
1.4188060164e-05
1.41880238519e-05
1.41879928328e-05
1.41879705167e-05
1.41879536475e-05
1.41879360503e-05
1.41879168169e-05
1.41878945593e-05
1.41878370344e-05
1.41878042353e-05
1.41877718542e-05
1.4187745782e-05
1.41877095166e-05
1.41876426989e-05
1.41875808529e-05
1.41875282082e-05
1.41874858581e-05
1.41874526191e-05
1.41874256712e-05
1.41874034902e-05
1.41873865021e-05
1.41873726116e-05
1.41873577217e-05
1.41873447707e-05
1.41873292608e-05
1.41873101558e-05
1.41872878879e-05
1.41872552185e-05
1.41872180992e-05
1.41871727909e-05
1.41871209031e-05
1.41870636042e-05
1.41870062424e-05
1.41869475503e-05
1.41868918493e-05
1.4186832313e-05
1.41867698737e-05
1.41867039258e-05
1.41866324454e-05
1.41865607058e-05
1.41864835872e-05
1.41864172034e-05
1.4186364499e-05
1.41863168434e-05
1.41862753891e-05
1.41862345422e-05
1.41861866443e-05
1.41861365878e-05
1.41860903153e-05
1.41860616922e-05
1.41860440461e-05
1.41860330051e-05
1.41860257373e-05
1.41860190255e-05
1.41860103911e-05
1.4185996548e-05
1.41859759555e-05
1.41859497185e-05
1.41859203158e-05
1.41858916561e-05
1.41858638791e-05
1.41858349784e-05
1.41858051808e-05
1.41857699308e-05
1.41857304025e-05
1.41856885859e-05
1.4185634501e-05
1.41855833858e-05
1.41855312282e-05
1.4185481642e-05
1.41854322607e-05
1.41853825134e-05
1.41853309067e-05
1.41852742783e-05
1.41852096551e-05
1.41851379606e-05
1.41850691076e-05
1.41850077479e-05
1.41849561212e-05
1.41849172744e-05
1.41848868299e-05
1.41848528329e-05
1.41848115577e-05
1.41847593885e-05
1.41846951038e-05
1.41846174147e-05
1.41845281414e-05
1.41844268587e-05
1.41843196137e-05
1.41842030026e-05
1.4184092441e-05
1.41840011467e-05
1.41839304953e-05
1.41838783937e-05
1.4183839909e-05
1.41838050297e-05
1.41837674376e-05
1.41837208934e-05
1.41836679719e-05
1.41836128931e-05
1.41835585126e-05
1.41835046598e-05
1.41834478417e-05
1.41833832197e-05
1.41833092372e-05
1.41832311917e-05
1.41831593191e-05
1.41830964354e-05
1.41830463854e-05
1.41830093095e-05
1.4182979071e-05
1.41829560469e-05
1.41829430484e-05
1.41829298889e-05
1.41829155262e-05
1.41828749164e-05
1.41828430008e-05
1.41828248809e-05
1.41828142109e-05
1.41827895598e-05
1.41827495826e-05
1.41827052454e-05
1.41826520813e-05
1.41825883775e-05
1.41825130154e-05
1.41824223515e-05
1.41823124478e-05
1.41821909392e-05
1.41820771532e-05
1.4181987386e-05
1.41819064206e-05
1.41818185422e-05
1.41817260047e-05
1.418162978e-05
1.41815369932e-05
1.41814592202e-05
1.41813977297e-05
1.41813504648e-05
1.41813117879e-05
1.41812792299e-05
1.41812501325e-05
1.41812226255e-05
1.41811961846e-05
1.41811690959e-05
1.41811393207e-05
1.41811012059e-05
1.41810545843e-05
1.41810008682e-05
1.41809372523e-05
1.418086366e-05
1.41807802255e-05
1.41806856062e-05
1.41805861713e-05
1.41804748651e-05
1.41803697843e-05
1.41802684052e-05
1.41801720379e-05
1.41800792334e-05
1.41799892506e-05
1.41799009111e-05
1.41798133526e-05
1.41797300916e-05
1.4179654623e-05
1.4179590735e-05
1.41795378217e-05
1.41794888197e-05
1.41794444295e-05
1.41793953049e-05
1.41793270198e-05
1.41792528262e-05
1.41791706404e-05
1.41790792154e-05
1.41789811586e-05
1.41788754034e-05
1.41787619759e-05
1.41786497247e-05
1.41785130771e-05
1.41783357117e-05
1.41782050798e-05
1.41781032138e-05
1.41780212627e-05
1.41779570336e-05
1.41779082947e-05
1.41778720021e-05
1.41778444954e-05
1.41778224169e-05
1.41778033393e-05
1.41777864279e-05
1.41777680627e-05
1.41777428241e-05
1.41777087186e-05
1.41776662945e-05
1.41776191981e-05
1.41775756976e-05
1.41775406951e-05
1.41775135959e-05
1.41774819708e-05
1.41774542469e-05
1.41774118911e-05
1.41773529106e-05
1.41772625783e-05
1.41771546148e-05
1.41770331094e-05
1.41769169495e-05
1.41768361587e-05
1.41767636893e-05
1.41766268892e-05
1.4176392018e-05
1.41761643804e-05
1.41760373751e-05
1.41759508201e-05
1.41758689969e-05
1.4175766962e-05
1.41756171407e-05
1.41755630637e-05
1.4175518546e-05
1.41754663184e-05
1.41754059622e-05
1.41753307839e-05
1.4175246189e-05
1.41751603267e-05
1.41750702587e-05
1.41749640275e-05
1.41748476414e-05
1.41747371029e-05
1.41746433007e-05
1.41745695401e-05
1.41745108562e-05
1.41744556355e-05
1.41744046685e-05
1.41743539547e-05
1.41742969206e-05
1.41742384877e-05
1.41741732038e-05
1.41740907014e-05
1.41739950273e-05
1.41738899797e-05
1.4173789231e-05
1.41736901256e-05
1.41735378837e-05
1.41734454835e-05
1.41733320347e-05
1.41732696605e-05
1.417316774e-05
1.41730802975e-05
1.41729461733e-05
1.41728495185e-05
1.41727075044e-05
1.41726484919e-05
1.41725475243e-05
1.41724866098e-05
1.41724174004e-05
1.41723375709e-05
1.41722714734e-05
1.41721840188e-05
1.41720947706e-05
1.41720027274e-05
1.41719068568e-05
1.4171816442e-05
1.41717269658e-05
1.41716470476e-05
1.41715758017e-05
1.41714894155e-05
1.41713478755e-05
1.41712842007e-05
1.41711732239e-05
1.41710660348e-05
1.41709917473e-05
1.417091971e-05
1.41708354209e-05
1.41707404843e-05
1.41706445242e-05
1.41705496754e-05
1.41704645324e-05
1.41704022746e-05
1.41703603618e-05
1.41702414688e-05
1.41700303511e-05
1.416980586e-05
1.41696012272e-05
1.41694482864e-05
1.41693596393e-05
1.41693003345e-05
1.416923421e-05
1.41691354151e-05
1.41690551759e-05
1.41689179214e-05
1.41688251966e-05
1.41687569463e-05
1.41687066283e-05
1.41686565748e-05
1.41685986725e-05
1.41685197368e-05
1.41684332007e-05
1.41683515135e-05
1.41682732652e-05
1.41682294219e-05
1.41681210071e-05
1.41680283276e-05
1.41679074355e-05
1.41677823841e-05
1.41676556244e-05
1.41675082606e-05
1.41673455508e-05
1.41671859959e-05
1.41670239409e-05
1.41668728446e-05
1.41667391004e-05
1.41666239363e-05
1.41665283339e-05
1.41664393629e-05
1.41663314954e-05
1.4166216016e-05
1.41661423576e-05
1.41660756299e-05
1.41659760205e-05
1.4165867754e-05
1.41657386656e-05
1.4165620455e-05
1.41655492663e-05
1.41654938319e-05
1.41654210447e-05
1.41653642853e-05
1.41652736575e-05
1.41651902902e-05
1.41650290186e-05
1.41648806885e-05
1.41647635309e-05
1.41646442504e-05
1.41645013592e-05
1.41643430013e-05
1.4164191375e-05
1.41640764492e-05
1.41639757742e-05
1.41638600164e-05
1.41637296595e-05
1.41635908742e-05
1.41634575596e-05
1.41633506948e-05
1.41632802793e-05
1.41632295002e-05
1.41631617928e-05
1.4163073733e-05
1.41630061989e-05
1.4162874329e-05
1.4162726914e-05
1.41625761419e-05
1.41624512075e-05
1.41623348437e-05
1.41622118387e-05
1.41620678374e-05
1.41618929306e-05
1.41617172305e-05
1.41615856753e-05
1.41615113476e-05
1.41614711341e-05
1.41613955777e-05
1.41612882229e-05
1.41611910454e-05
1.41611209446e-05
1.41610494567e-05
1.41609118517e-05
1.41607909325e-05
1.41607062037e-05
1.41606391576e-05
1.41605840683e-05
1.41605289663e-05
1.41604618046e-05
1.41604079887e-05
1.41603523907e-05
1.41602743449e-05
1.41601322175e-05
1.41599995793e-05
1.41598814686e-05
1.41597586796e-05
1.41596219275e-05
1.4159466177e-05
1.41592999907e-05
1.41591174782e-05
1.41589285384e-05
1.41587457726e-05
1.41585806774e-05
1.41584321099e-05
1.41582908029e-05
1.41581543941e-05
1.41580135102e-05
1.41578614045e-05
1.4157701121e-05
1.4157555546e-05
1.41574321791e-05
1.41573235181e-05
1.41572184364e-05
1.4157107116e-05
1.41569898664e-05
1.41568695729e-05
1.41567427492e-05
1.41566079355e-05
1.41564719694e-05
1.41563488033e-05
1.41562387175e-05
1.41561322952e-05
1.41560210727e-05
1.41558991476e-05
1.41557638439e-05
1.41556154232e-05
1.41554637309e-05
1.41553101157e-05
1.41551509662e-05
1.41549994031e-05
1.41548594226e-05
1.41547223064e-05
1.41545742014e-05
1.41544192161e-05
1.41542557823e-05
1.41540819542e-05
1.41538899075e-05
1.4153687305e-05
1.41534827958e-05
1.41533088445e-05
1.41531679959e-05
1.41530674162e-05
1.41529942522e-05
1.4152928976e-05
1.41528486669e-05
1.41527475322e-05
1.4152648056e-05
1.41525563094e-05
1.41524862752e-05
1.41524183544e-05
1.41523398285e-05
1.41522353868e-05
1.41521281403e-05
1.41520368026e-05
1.41519795396e-05
1.41519200551e-05
1.41518690953e-05
1.41517964657e-05
1.41516866553e-05
1.4151512481e-05
1.41513443181e-05
1.41512179332e-05
1.41511248868e-05
1.41510363112e-05
1.41509348078e-05
1.41508245719e-05
1.41507020823e-05
1.41505715677e-05
1.41504379074e-05
1.41502832799e-05
1.41501079595e-05
1.41499192059e-05
1.41497286081e-05
1.41495302862e-05
1.41493353667e-05
1.41491492244e-05
1.41489660514e-05
1.41487973772e-05
1.41486449395e-05
1.41484991062e-05
1.4148352003e-05
1.41481984438e-05
1.41480302121e-05
1.41478482925e-05
1.41476563687e-05
1.41474615958e-05
1.4147271256e-05
1.4147086332e-05
1.41469050258e-05
1.41467316953e-05
1.41465649889e-05
1.41464240555e-05
1.4146291049e-05
1.414616714e-05
1.4146044535e-05
1.41459174415e-05
1.41457918089e-05
1.41456728801e-05
1.41455663466e-05
1.41454693031e-05
1.41453778386e-05
1.41452846315e-05
1.41451884762e-05
1.41450907425e-05
1.41449920684e-05
1.41448905468e-05
1.41447844862e-05
1.414467396e-05
1.41445529121e-05
1.41444126959e-05
1.41442627702e-05
1.41441071882e-05
1.41439300527e-05
1.41437357118e-05
1.4143521065e-05
1.41433084796e-05
1.41431023632e-05
1.41429134585e-05
1.41427383433e-05
1.41425703933e-05
1.41424050717e-05
1.41422410111e-05
1.41420777121e-05
1.4141912458e-05
1.41417447932e-05
1.41415769309e-05
1.41414129013e-05
1.41412570313e-05
1.41411110287e-05
1.41409703314e-05
1.41408328926e-05
1.41407046764e-05
1.41405646742e-05
1.41404193695e-05
1.41402718881e-05
1.41401217841e-05
1.41399679968e-05
1.41398078289e-05
1.41396512819e-05
1.41395004349e-05
1.41393676468e-05
1.41392281506e-05
1.41390846381e-05
1.41389362726e-05
1.41387880799e-05
1.41386458157e-05
1.41385159986e-05
1.41383971229e-05
1.41382818501e-05
1.41381634745e-05
1.41380405578e-05
1.41379103472e-05
1.41377666873e-05
1.41376074459e-05
1.41374222222e-05
1.41372111211e-05
1.41369829418e-05
1.41367442142e-05
1.41365094135e-05
1.41362981756e-05
1.41360986109e-05
1.41359114838e-05
1.41357381445e-05
1.41355761103e-05
1.41354190279e-05
1.41352675054e-05
1.41351244342e-05
1.41349921549e-05
1.4134869963e-05
1.41347557106e-05
1.41346453008e-05
1.41345333727e-05
1.41344151869e-05
1.41342882699e-05
1.41341505264e-05
1.41340009405e-05
1.41338415176e-05
1.41336761743e-05
1.41335096761e-05
1.41333456762e-05
1.41331807808e-05
1.41330085258e-05
1.41328206966e-05
1.41326082361e-05
1.41323652282e-05
1.41320858969e-05
1.41317875622e-05
1.41314813964e-05
1.41311818803e-05
1.41308969842e-05
1.41306074961e-05
1.41303212873e-05
1.41300617673e-05
1.41298391714e-05
1.41296563763e-05
1.41295140218e-05
1.41293970221e-05
1.41292927341e-05
1.41291946582e-05
1.41290973598e-05
1.41289990902e-05
1.4128898652e-05
1.41287937623e-05
1.41286896541e-05
1.41285968134e-05
1.41285182885e-05
1.41284494306e-05
1.41283832171e-05
1.41283150149e-05
1.4128243002e-05
1.41281662265e-05
1.41280841077e-05
1.41279954046e-05
1.41278963248e-05
1.412778415e-05
1.41276655173e-05
1.41275440245e-05
1.412741917e-05
1.41272861541e-05
1.41271340545e-05
1.4126954395e-05
1.41267399917e-05
1.41264864049e-05
1.41261895834e-05
1.41258551786e-05
1.41254996304e-05
1.41251542697e-05
1.41248423498e-05
1.41245771722e-05
1.41243356533e-05
1.41241090844e-05
1.41239040257e-05
1.41237089417e-05
1.41235222686e-05
1.41233322372e-05
1.41231650638e-05
1.41230194315e-05
1.41228926648e-05
1.412277252e-05
1.41226661544e-05
1.41225858028e-05
1.41225291674e-05
1.4122484631e-05
1.41224085909e-05
1.41222684759e-05
1.41220156177e-05
1.41217063839e-05
1.41213486021e-05
1.41210041762e-05
1.41207052829e-05
1.41204910294e-05
1.41203306344e-05
1.41202299917e-05
1.41201686529e-05
1.4120140783e-05
1.41200777227e-05
1.41199901755e-05
1.41198707664e-05
1.41197282546e-05
1.41195924243e-05
1.41194608766e-05
1.4119337721e-05
1.41192262644e-05
1.41191187836e-05
1.41190063054e-05
1.41188780072e-05
1.41187255602e-05
1.41185425816e-05
1.41183236587e-05
1.41180678423e-05
1.41177771417e-05
1.41174545967e-05
1.41171032927e-05
1.41167257808e-05
1.41163330133e-05
1.41159525534e-05
1.4115609152e-05
1.41153072827e-05
1.41150461156e-05
1.41148155274e-05
1.41146214621e-05
1.41144473377e-05
1.4114283379e-05
1.41141291209e-05
1.41139847351e-05
1.4113844662e-05
1.41137074132e-05
1.41135703735e-05
1.41134417792e-05
1.41133179415e-05
1.41131994276e-05
1.41130852688e-05
1.41129729855e-05
1.41128595329e-05
1.41127422056e-05
1.41126187736e-05
1.41124876121e-05
1.41123470079e-05
1.41122072809e-05
1.41120666274e-05
1.41119156303e-05
1.41117522132e-05
1.41115673739e-05
1.41113535599e-05
1.41111139443e-05
1.41108383536e-05
1.41105386278e-05
1.41102192031e-05
1.41098887488e-05
1.41095622745e-05
1.41092574982e-05
1.41090000368e-05
1.41087860774e-05
1.41085912488e-05
1.41084140631e-05
1.41082474252e-05
1.41080874925e-05
1.41079315864e-05
1.41077797564e-05
1.41076328659e-05
1.41074914725e-05
1.41073551584e-05
1.41072230045e-05
1.41070916859e-05
1.41069583582e-05
1.41068176893e-05
1.41066651519e-05
1.41064974286e-05
1.41063117322e-05
1.41061062664e-05
1.41058808083e-05
1.4105635809e-05
1.41053724565e-05
1.41050911134e-05
1.41047933192e-05
1.41044834174e-05
1.41041689075e-05
1.41038548558e-05
1.41035434346e-05
1.41032393882e-05
1.41029535252e-05
1.41026907593e-05
1.41024524337e-05
1.41022314027e-05
1.41020287915e-05
1.41018389526e-05
1.41016532745e-05
1.41014738329e-05
1.41013238808e-05
1.41012099425e-05
1.41011270965e-05
1.41010613899e-05
1.41008822626e-05
1.41007904146e-05
1.41007060876e-05
1.41005639902e-05
1.41004058182e-05
1.41002041286e-05
1.40999906386e-05
1.40998214384e-05
1.40997253774e-05
1.40996594854e-05
1.40994555997e-05
1.40992521473e-05
1.40991731002e-05
1.40990383792e-05
1.40987572669e-05
1.40985502071e-05
1.40983820421e-05
1.40981774203e-05
1.40978892231e-05
1.40976873904e-05
1.4097423441e-05
1.40971826101e-05
1.40969660676e-05
1.40967283152e-05
1.40965120615e-05
1.40963075446e-05
1.40961049385e-05
1.4095911966e-05
1.40957181908e-05
1.40955274776e-05
1.40953357599e-05
1.40951367975e-05
1.40949265565e-05
1.40946982345e-05
1.40944494394e-05
1.40941738184e-05
1.40938685467e-05
1.40935326558e-05
1.40931669343e-05
1.40927729525e-05
1.40923592297e-05
1.4091941522e-05
1.40915457492e-05
1.40911765876e-05
1.40908448974e-05
1.40905445622e-05
1.40902719734e-05
1.40900000238e-05
1.4089743004e-05
1.40894946884e-05
1.40892579229e-05
1.40890319097e-05
1.40888228882e-05
1.40886225812e-05
1.40884486742e-05
1.40882628332e-05
1.4088088307e-05
1.40879287958e-05
1.4087758807e-05
1.40875933729e-05
1.40874470186e-05
1.40872842186e-05
1.4087120507e-05
1.40869476582e-05
1.40867750557e-05
1.40865974684e-05
1.40864163065e-05
1.40862267801e-05
1.40860534593e-05
1.40858911846e-05
1.40857288158e-05
1.40855739765e-05
1.40854194206e-05
1.40852706326e-05
1.40851306825e-05
1.40849846852e-05
1.4084844366e-05
1.40847075772e-05
1.40845710606e-05
1.40844340373e-05
1.40842958973e-05
1.40841541116e-05
1.40840040813e-05
1.40838426875e-05
1.40836636714e-05
1.40834651101e-05
1.408324898e-05
1.40830205718e-05
1.40827840247e-05
1.40825408663e-05
1.40822895278e-05
1.40820269303e-05
1.40817436111e-05
1.40814363289e-05
1.40810973009e-05
1.40807237049e-05
1.40803207789e-05
1.4079902728e-05
1.40794859379e-05
1.40790879042e-05
1.4078720793e-05
1.40783871625e-05
1.40780810018e-05
1.40777942293e-05
1.40775211447e-05
1.40772578447e-05
1.40770017811e-05
1.4076750044e-05
1.40764971357e-05
1.40762647908e-05
1.40760538525e-05
1.40757858485e-05
1.40755420797e-05
1.40752935121e-05
1.40750515782e-05
1.40748123202e-05
1.40745805282e-05
1.40743511036e-05
1.40741273986e-05
1.40739117002e-05
1.40737027297e-05
1.4073491236e-05
1.40732616533e-05
1.40730080783e-05
1.40727414533e-05
1.40724624243e-05
1.40721644316e-05
1.40718588289e-05
1.40715772147e-05
1.40712793866e-05
1.40709843703e-05
1.40706976933e-05
1.4070426691e-05
1.4070164746e-05
1.40698970857e-05
1.40696097176e-05
1.40692965369e-05
1.40689552261e-05
1.40686016059e-05
1.40682505603e-05
1.40679161009e-05
1.40676306496e-05
1.40673440733e-05
1.40670704889e-05
1.40668136411e-05
1.40665715754e-05
1.40663491917e-05
1.40661455404e-05
1.40659679591e-05
1.40658107258e-05
1.40656674709e-05
1.40655317056e-05
1.40653978238e-05
1.40652656931e-05
1.40651331503e-05
1.40649989966e-05
1.40648635636e-05
1.40647265698e-05
1.40645873639e-05
1.40644455218e-05
1.40642998051e-05
1.40641505502e-05
1.40639973085e-05
1.40638414122e-05
1.40636853847e-05
1.40635336683e-05
1.40633928166e-05
1.40632721546e-05
1.406318003e-05
1.40631141351e-05
1.40630174571e-05
1.4062805193e-05
1.40625024976e-05
1.40621808968e-05
1.40618655149e-05
1.40615524678e-05
1.40612457917e-05
1.40609342937e-05
1.40606015207e-05
1.40602342844e-05
1.40598283025e-05
1.40593862922e-05
1.40589140146e-05
1.40584130531e-05
1.40578897895e-05
1.40573663758e-05
1.40569078694e-05
1.4056436678e-05
1.40559748411e-05
1.40555235433e-05
1.40551017041e-05
1.40547150558e-05
1.40543648527e-05
1.40540511634e-05
1.4053766156e-05
1.40535022187e-05
1.40532527692e-05
1.40530115469e-05
1.405277495e-05
1.40525424166e-05
1.4052314922e-05
1.40520901487e-05
1.40518721407e-05
1.40516638669e-05
1.40514573924e-05
1.40512664117e-05
1.40510874751e-05
1.40509147501e-05
1.40507577826e-05
1.40506117729e-05
1.40504739868e-05
1.40503419197e-05
1.40502224593e-05
1.40501080378e-05
1.40499920514e-05
1.40498832843e-05
1.40497747024e-05
1.40496764816e-05
1.4049568777e-05
1.40494544968e-05
1.40493474206e-05
1.40492294223e-05
1.40491140442e-05
1.40489862148e-05
1.40488469195e-05
1.40486953434e-05
1.40485288368e-05
1.4048345013e-05
1.40481423761e-05
1.40479232195e-05
1.40476877078e-05
1.40474320908e-05
1.40471473098e-05
1.40468654985e-05
1.40465395759e-05
1.40461538961e-05
1.40457036667e-05
1.40451905766e-05
1.40446322026e-05
1.40440260805e-05
1.40433885572e-05
1.40427433735e-05
1.40421750245e-05
1.40416290663e-05
1.40411356364e-05
1.40407022822e-05
1.40403207037e-05
1.40399822382e-05
1.40396772562e-05
1.40393909198e-05
1.40391132454e-05
1.40388419257e-05
1.40385744029e-05
1.40383098912e-05
1.40380482114e-05
1.40377863457e-05
1.4037522909e-05
1.40372589584e-05
1.40369968116e-05
1.403674015e-05
1.40364921011e-05
1.40362546327e-05
1.4036027555e-05
1.40358057727e-05
1.40355824749e-05
1.40353803774e-05
1.40351663055e-05
1.4034948966e-05
1.40347294437e-05
1.4034506414e-05
1.40342785135e-05
1.40340407593e-05
1.40337915966e-05
1.40335259002e-05
1.40332389475e-05
1.40329248194e-05
1.40325763851e-05
1.4032187533e-05
1.40317552308e-05
1.40312719295e-05
1.40307898408e-05
1.4030308183e-05
1.40297813201e-05
1.40292698056e-05
1.4028791671e-05
1.40283569903e-05
1.40279658802e-05
1.40276244516e-05
1.40273183583e-05
1.40270395458e-05
1.40267828618e-05
1.40265411385e-05
1.4026307268e-05
1.40260812345e-05
1.40258704179e-05
1.40256596388e-05
1.4025456612e-05
1.40252644478e-05
1.40250824864e-05
1.40249320478e-05
1.40248047058e-05
1.40247205795e-05
1.40246622096e-05
1.4024618293e-05
1.40245076091e-05
1.40243223066e-05
1.4024117844e-05
1.40239159603e-05
1.4023680146e-05
1.40234155634e-05
1.4023148633e-05
1.40228169529e-05
1.40224213461e-05
1.40219577774e-05
1.40214354663e-05
1.40208815883e-05
1.40203232841e-05
1.40198173975e-05
1.4019382385e-05
1.40190153804e-05
1.4018736717e-05
1.40184987118e-05
1.40183239516e-05
1.40182073561e-05
1.40181538812e-05
1.40180361324e-05
1.40178540777e-05
1.40176093235e-05
1.40173582422e-05
1.40170963692e-05
1.40168953522e-05
1.40167058943e-05
1.40165217365e-05
1.40163512489e-05
1.40161921182e-05
1.40160358827e-05
1.40158824977e-05
1.40157326837e-05
1.40155814395e-05
1.40154255992e-05
1.40152573343e-05
1.40150728212e-05
1.40148626159e-05
1.40146216254e-05
1.40143421535e-05
1.4014018675e-05
1.40136435692e-05
1.40132106364e-05
1.40127193733e-05
1.40121767145e-05
1.40116025824e-05
1.40110278487e-05
1.40104844687e-05
1.40099990603e-05
1.40095836604e-05
1.40092116167e-05
1.40088629972e-05
1.4008533513e-05
1.40082022569e-05
1.40078631861e-05
1.40075113878e-05
1.40071591436e-05
1.40068112981e-05
1.40064837136e-05
1.40061856238e-05
1.4005921788e-05
1.40056845298e-05
1.4005462131e-05
1.40052488459e-05
1.4005035792e-05
1.40048196014e-05
1.40045970613e-05
1.40043670482e-05
1.40041298422e-05
1.40038809528e-05
1.40036176314e-05
1.40033282449e-05
1.40030140358e-05
1.40026647577e-05
1.4002294407e-05
1.40018654943e-05
1.40014184909e-05
1.40009524745e-05
1.40004804785e-05
1.40000090313e-05
1.3999547123e-05
1.39991006125e-05
1.39986741487e-05
1.39982671358e-05
1.39978775413e-05
1.39975017481e-05
1.39971357396e-05
1.39967772058e-05
1.39964234884e-05
1.3996073693e-05
1.39957281436e-05
1.39953881927e-05
1.39950535178e-05
1.39947053886e-05
1.39943805918e-05
1.39940865098e-05
1.39937711875e-05
1.39934581317e-05
1.39931381927e-05
1.39928160273e-05
1.39924941693e-05
1.3992179297e-05
1.39918837549e-05
1.39916121184e-05
1.39913600584e-05
1.39911209853e-05
1.39908791522e-05
1.39906223252e-05
1.39903388721e-05
1.39900429001e-05
1.39897608906e-05
1.39894563512e-05
1.39891556036e-05
1.39888563444e-05
1.39885525247e-05
1.39882430813e-05
1.39879200583e-05
1.39875839206e-05
1.39872385371e-05
1.39868717797e-05
1.398649163e-05
1.39860841512e-05
1.39856588029e-05
1.39852086907e-05
1.39847308087e-05
1.39842171001e-05
1.3983683195e-05
1.3983132256e-05
1.3982576281e-05
1.39820257351e-05
1.39815053602e-05
1.3981021029e-05
1.39805746606e-05
1.39801585854e-05
1.39797336407e-05
1.39793156898e-05
1.39788918369e-05
1.39784996508e-05
1.39781402806e-05
1.39778548574e-05
1.39775942379e-05
1.39773618514e-05
1.39771443267e-05
1.39769457251e-05
1.39767427489e-05
1.39765208915e-05
1.39762860908e-05
1.39760411189e-05
1.39757917942e-05
1.39755431945e-05
1.39752967331e-05
1.39750546767e-05
1.39748168735e-05
1.39745852398e-05
1.39743640515e-05
1.39741534659e-05
1.39739501326e-05
1.39737732305e-05
1.39736147236e-05
1.39734559899e-05
1.39732941935e-05
1.39731284411e-05
1.3972957492e-05
1.39727755065e-05
1.39725779128e-05
1.397235811e-05
1.39721100893e-05
1.39718286155e-05
1.3971506588e-05
1.39711395681e-05
1.39707261006e-05
1.39702659439e-05
1.39697562387e-05
1.39691957679e-05
1.39685894933e-05
1.39679452294e-05
1.39672863978e-05
1.39666538233e-05
1.39659572776e-05
1.39652487413e-05
1.39645567198e-05
1.39638790382e-05
1.39632308101e-05
1.39626209649e-05
1.39620114994e-05
1.39614119224e-05
1.39608201205e-05
1.39602805965e-05
1.39598004731e-05
1.39593819844e-05
1.39590681133e-05
1.39588990633e-05
1.3958737787e-05
1.39582944814e-05
1.39579347184e-05
1.39577969081e-05
1.39576199066e-05
1.39573156571e-05
1.39569621679e-05
1.39565769937e-05
1.39562042123e-05
1.39558955278e-05
1.39557147223e-05
1.39555941415e-05
1.39554684796e-05
1.39551734645e-05
1.39550392949e-05
1.39548973047e-05
1.39545867668e-05
1.39542949931e-05
1.39540832583e-05
1.39538981072e-05
1.39536340645e-05
1.3953328374e-05
1.39530401233e-05
1.39526313446e-05
1.39521521072e-05
1.39515770705e-05
1.39509283163e-05
1.39502490317e-05
1.3949581227e-05
1.39489272854e-05
1.39482954092e-05
1.39477012545e-05
1.39471774224e-05
1.39467033644e-05
1.39462920424e-05
1.39459157172e-05
1.39455862236e-05
1.39453019874e-05
1.39450468397e-05
1.3944854499e-05
1.39446799132e-05
1.39445060265e-05
1.39443502803e-05
1.39441784376e-05
1.39440353996e-05
1.39438853957e-05
1.39437429588e-05
1.39435438877e-05
1.39432991565e-05
1.39430147336e-05
1.39426953926e-05
1.39423813452e-05
1.3942135132e-05
1.39419317629e-05
1.39417565217e-05
1.39415885682e-05
1.39414045616e-05
1.39411904314e-05
1.39409624457e-05
1.39407423729e-05
1.39405379339e-05
1.3940329617e-05
1.39400854835e-05
1.39397800249e-05
1.3939404536e-05
1.39389736301e-05
1.39384887964e-05
1.393795702e-05
1.39374094061e-05
1.39368827345e-05
1.39363583185e-05
1.393588466e-05
1.3935371311e-05
1.39348639184e-05
1.39344244137e-05
1.39340454863e-05
1.39336788826e-05
1.39332950476e-05
1.39329046917e-05
1.39324908602e-05
1.39320744407e-05
1.39316587357e-05
1.39312285599e-05
1.39307777116e-05
1.39303194335e-05
1.39298565861e-05
1.39293744016e-05
1.39288246067e-05
1.39282578956e-05
1.39276535118e-05
1.3926983789e-05
1.39263104504e-05
1.39256706686e-05
1.39250617018e-05
1.39245044337e-05
1.39239743883e-05
1.39234661801e-05
1.39229644076e-05
1.39224694231e-05
1.39219717411e-05
1.39214921403e-05
1.39210135349e-05
1.3920570071e-05
1.39201477864e-05
1.39197411818e-05
1.3919415885e-05
1.39190504899e-05
1.39186943236e-05
1.39183409963e-05
1.39179933268e-05
1.391765595e-05
1.39173312165e-05
1.39170190831e-05
1.39167170995e-05
1.39164201589e-05
1.39161207561e-05
1.39158146145e-05
1.39155004794e-05
1.39151773289e-05
1.39148456595e-05
1.39145054209e-05
1.39141562908e-05
1.39137951352e-05
1.39134251243e-05
1.39130478685e-05
1.39126643947e-05
1.39122758715e-05
1.39118820276e-05
1.39114836992e-05
1.39110822694e-05
1.39106769286e-05
1.39102628982e-05
1.39098377908e-05
1.39094044898e-05
1.39089643997e-05
1.39085127039e-05
1.39080473424e-05
1.39075638544e-05
1.39070608895e-05
1.39065374344e-05
1.39059986374e-05
1.39054495005e-05
1.39048908517e-05
1.39043302528e-05
1.39037674393e-05
1.39032046401e-05
1.39026427989e-05
1.39020767943e-05
1.39014866775e-05
1.39008825291e-05
1.39002535136e-05
1.38995920445e-05
1.38989015818e-05
1.38981729325e-05
1.38974165307e-05
1.38966605657e-05
1.38959207349e-05