/*--------------------------------*- C++ -*----------------------------------*\
  =========                 |
  \\      /  F ield         | OpenFOAM: The Open Source CFD Toolbox
   \\    /   O peration     | Website:  https://openfoam.org
    \\  /    A nd           | Version:  6
     \\/     M anipulation  |
\*---------------------------------------------------------------------------*/
FoamFile
{
    version     2.0;
    format      ascii;
    class       volScalarField;
    location    "0.0005";
    object      H2;
}
// * * * * * * * * * * * * * * * * * * * * * * * * * * * * * * * * * * * * * //

dimensions      [0 0 0 0 0 0 0];

internalField   nonuniform List<scalar> 
32000
(
7.22455582641e-05
7.22455399015e-05
7.22455177779e-05
7.22454943408e-05
7.22454582323e-05
7.22454318582e-05
7.22453979996e-05
7.22453550379e-05
7.2245305327e-05
7.22452650236e-05
7.22452126696e-05
7.22451655205e-05
7.22450834442e-05
7.22450154796e-05
7.22449380861e-05
7.22448773893e-05
7.22448355946e-05
7.224476446e-05
7.22446857391e-05
7.22446134451e-05
7.22445190365e-05
7.22444156139e-05
7.22443483617e-05
7.22442817807e-05
7.2244185601e-05
7.22440724282e-05
7.22439788264e-05
7.22438512775e-05
7.22437219069e-05
7.22435944823e-05
7.22434954461e-05
7.22433685137e-05
7.22432145829e-05
7.22430964813e-05
7.22429469671e-05
7.22428354682e-05
7.22427328526e-05
7.22425514622e-05
7.22424073949e-05
7.22423143264e-05
7.22421827158e-05
7.22419941801e-05
7.2241813077e-05
7.22415386113e-05
7.22412904991e-05
7.22410596863e-05
7.22408946225e-05
7.22407308641e-05
7.22404888659e-05
7.22403339576e-05
7.22402133688e-05
7.22400341404e-05
7.22398456296e-05
7.22396488503e-05
7.22394511925e-05
7.2239281452e-05
7.22389138448e-05
7.22386573162e-05
7.22384039507e-05
7.22381635022e-05
7.22380097173e-05
7.22377906479e-05
7.22374806429e-05
7.22373036122e-05
7.22371799334e-05
7.22369879385e-05
7.22367746105e-05
7.22363282547e-05
7.22360710958e-05
7.22357623467e-05
7.22355251223e-05
7.22352651932e-05
7.22350594266e-05
7.22348949494e-05
7.22346055996e-05
7.22342588177e-05
7.22339513896e-05
7.22334144941e-05
7.22330894651e-05
7.22327649558e-05
7.22325321507e-05
7.22321974074e-05
7.2232003324e-05
7.22317968478e-05
7.22314158868e-05
7.22312019797e-05
7.22308934789e-05
7.2230647112e-05
7.22303918591e-05
7.2230083326e-05
7.22294341782e-05
7.22286643127e-05
7.22281690304e-05
7.22277199139e-05
7.22274141851e-05
7.2227208872e-05
7.22269871534e-05
7.22267134634e-05
7.22263734037e-05
7.22258128416e-05
7.22254828553e-05
7.22253035136e-05
7.2225064526e-05
7.22247556257e-05
7.22245181482e-05
7.22240058634e-05
7.22231844558e-05
7.22227018854e-05
7.22223771684e-05
7.22221639771e-05
7.22218574259e-05
7.22213702244e-05
7.22208189935e-05
7.22205082319e-05
7.22202637991e-05
7.22200488623e-05
7.22194625856e-05
7.22184827184e-05
7.22178416983e-05
7.22174624983e-05
7.22171079945e-05
7.22168192938e-05
7.22165125528e-05
7.22162507436e-05
7.2215606013e-05
7.22150629494e-05
7.22145457768e-05
7.22139743811e-05
7.22134990455e-05
7.22131689356e-05
7.22129342163e-05
7.22126177697e-05
7.22122900533e-05
7.22119578216e-05
7.22113355041e-05
7.2210442854e-05
7.2210053064e-05
7.22097920107e-05
7.22091528834e-05
7.22084678261e-05
7.22072590679e-05
7.2206220148e-05
7.22054231276e-05
7.22050091631e-05
7.22047171453e-05
7.22043748007e-05
7.22040508911e-05
7.22034929856e-05
7.220306949e-05
7.22025101625e-05
7.22021268822e-05
7.22018945364e-05
7.22013927053e-05
7.22010718193e-05
7.22007352744e-05
7.22005004001e-05
7.21999617612e-05
7.21988643823e-05
7.2197859357e-05
7.21969823211e-05
7.21963098257e-05
7.21957788489e-05
7.21952807782e-05
7.21948252845e-05
7.21944189589e-05
7.21940181128e-05
7.21935462557e-05
7.21929164021e-05
7.21923853325e-05
7.219201044e-05
7.21916142996e-05
7.21910103244e-05
7.21902017311e-05
7.21892149349e-05
7.21882193316e-05
7.21872146637e-05
7.21862267723e-05
7.21853682423e-05
7.21845292797e-05
7.21836112294e-05
7.21828045105e-05
7.21822712427e-05
7.21819082233e-05
7.21815924201e-05
7.21807732397e-05
7.21801596273e-05
7.21797429093e-05
7.21794817953e-05
7.21792475598e-05
7.21786559238e-05
7.21778003129e-05
7.21772848582e-05
7.21770231723e-05
7.21765241522e-05
7.2175619564e-05
7.21749088198e-05
7.2174493768e-05
7.21742334125e-05
7.21736025631e-05
7.21726683438e-05
7.21715156974e-05
7.21704042463e-05
7.21694280131e-05
7.21686843131e-05
7.21680748734e-05
7.21674719757e-05
7.21667801867e-05
7.21659971849e-05
7.21651636511e-05
7.21644097543e-05
7.21638299378e-05
7.21633353525e-05
7.21629276401e-05
7.2162546714e-05
7.21619379324e-05
7.21611052509e-05
7.21601184808e-05
7.21590213768e-05
7.21578988724e-05
7.21566997022e-05
7.21556126406e-05
7.21547918939e-05
7.21535114597e-05
7.21528445328e-05
7.21522331719e-05
7.21515686591e-05
7.21508533396e-05
7.2149994946e-05
7.21491612408e-05
7.21483553955e-05
7.21477403624e-05
7.21472460962e-05
7.21469503492e-05
7.21465950329e-05
7.21455849798e-05
7.21447091736e-05
7.21441735192e-05
7.21439795337e-05
7.21433112097e-05
7.21421851887e-05
7.21411047461e-05
7.21401533612e-05
7.21392402705e-05
7.21383242434e-05
7.21373551434e-05
7.21363486531e-05
7.21354052413e-05
7.21345390569e-05
7.21336906694e-05
7.2132834765e-05
7.21319262077e-05
7.21309627528e-05
7.21298330495e-05
7.21287028008e-05
7.21277580403e-05
7.21271031279e-05
7.21266378723e-05
7.21261712443e-05
7.21256874855e-05
7.21251521642e-05
7.21237938304e-05
7.21230297095e-05
7.21222899712e-05
7.21217068682e-05
7.21209132827e-05
7.21194528949e-05
7.21181017855e-05
7.21169137938e-05
7.2115882328e-05
7.21149531843e-05
7.21140471437e-05
7.21131549453e-05
7.21123699058e-05
7.21117076721e-05
7.2111043095e-05
7.21105261937e-05
7.21099593357e-05
7.21093138357e-05
7.2108627738e-05
7.21076810782e-05
7.21067207226e-05
7.21056013435e-05
7.21044810897e-05
7.21032797673e-05
7.21021349424e-05
7.21010556545e-05
7.21000479622e-05
7.20990438391e-05
7.20979830698e-05
7.20968741935e-05
7.20956669526e-05
7.20944456419e-05
7.20931380453e-05
7.20920088029e-05
7.20910757811e-05
7.20901571267e-05
7.20892848259e-05
7.20883485324e-05
7.20872007054e-05
7.20859538732e-05
7.20847530194e-05
7.20839148936e-05
7.20833000947e-05
7.2082796335e-05
7.20823247352e-05
7.20818003897e-05
7.2081159934e-05
7.20803257285e-05
7.20792970655e-05
7.20781317577e-05
7.20769914077e-05
7.20759781935e-05
7.20750911036e-05
7.20742665886e-05
7.2073482137e-05
7.20725910711e-05
7.20716737321e-05
7.20707231441e-05
7.20694908012e-05
7.20683702968e-05
7.20672813312e-05
7.20662421872e-05
7.20652181992e-05
7.2064159309e-05
7.20630210264e-05
7.20617415044e-05
7.2060319974e-05
7.20588463089e-05
7.20575357377e-05
7.20564465403e-05
7.2055555086e-05
7.2054869941e-05
7.20543177578e-05
7.20536957413e-05
7.20529530841e-05
7.20520413803e-05
7.20509533882e-05
7.20496804586e-05
7.20482444584e-05
7.20466594425e-05
7.20450051909e-05
7.2043234297e-05
7.20415544032e-05
7.20401412126e-05
7.20390116413e-05
7.20381108882e-05
7.20373725123e-05
7.20366547294e-05
7.20358388443e-05
7.20348016492e-05
7.20336268513e-05
7.20323857505e-05
7.20311754713e-05
7.20300076592e-05
7.20288265231e-05
7.2027562663e-05
7.20261824628e-05
7.20247368105e-05
7.20233390072e-05
7.20219892644e-05
7.20207716773e-05
7.20197601998e-05
7.20188693535e-05
7.20181445156e-05
7.20176887552e-05
7.20172133316e-05
7.20166864482e-05
7.20152144356e-05
7.20140699621e-05
7.20134254219e-05
7.20130526219e-05
7.20122280925e-05
7.20109578742e-05
7.20097022413e-05
7.20083761087e-05
7.2007008214e-05
7.20055786968e-05
7.20040655582e-05
7.20024191601e-05
7.20007358575e-05
7.19992573729e-05
7.19981245716e-05
7.1997102445e-05
7.19959442104e-05
7.19946428249e-05
7.19931975488e-05
7.19917084897e-05
7.19903648403e-05
7.19891982557e-05
7.19881301147e-05
7.19871484167e-05
7.19861939805e-05
7.19851718427e-05
7.19841148111e-05
7.19830384106e-05
7.19819742344e-05
7.19809431648e-05
7.19798365433e-05
7.19786771697e-05
7.1977508428e-05
7.19763184255e-05
7.19750852873e-05
7.1973797654e-05
7.19724181132e-05
7.19709941325e-05
7.19693935443e-05
7.19678704687e-05
7.19663959371e-05
7.19649920138e-05
7.19636405071e-05
7.1962299451e-05
7.19609134949e-05
7.19594239839e-05
7.19578647162e-05
7.19563393522e-05
7.1955005961e-05
7.19539146068e-05
7.19529442331e-05
7.19521137796e-05
7.19512222225e-05
7.19500017287e-05
7.19487189143e-05
7.19473454746e-05
7.19458882655e-05
7.194439446e-05
7.19428677636e-05
7.19412985371e-05
7.19397941268e-05
7.19380010705e-05
7.19356958171e-05
7.19339752609e-05
7.19325454729e-05
7.19312552979e-05
7.19300793541e-05
7.19290160988e-05
7.19280528556e-05
7.19271510372e-05
7.19262508849e-05
7.19253049435e-05
7.192435395e-05
7.1923320833e-05
7.19220397708e-05
7.19205369939e-05
7.19189335114e-05
7.19173736062e-05
7.19161131416e-05
7.19152261857e-05
7.1914625383e-05
7.19139627682e-05
7.1913407109e-05
7.19125890655e-05
7.19115126601e-05
7.19099349995e-05
7.19081430199e-05
7.19062602554e-05
7.19045475023e-05
7.19033999482e-05
7.19024104681e-05
7.19006007714e-05
7.18975542636e-05
7.18946403042e-05
7.18930331972e-05
7.18919106576e-05
7.18908293461e-05
7.18894637708e-05
7.18874300857e-05
7.18866071062e-05
7.18858305183e-05
7.18848202485e-05
7.18836685279e-05
7.188227765e-05
7.1880724124e-05
7.18791455974e-05
7.18775069905e-05
7.1875617434e-05
7.18735834727e-05
7.18716731815e-05
7.18700972896e-05
7.18688728697e-05
7.18678697254e-05
7.18668752349e-05
7.18658821484e-05
7.18648374908e-05
7.1863654808e-05
7.18624721101e-05
7.18612101551e-05
7.18597206697e-05
7.18580743635e-05
7.18563408299e-05
7.18547339928e-05
7.18531932493e-05
7.18508844367e-05
7.18495176646e-05
7.18478582396e-05
7.18469684485e-05
7.18455037741e-05
7.1844241272e-05
7.1842287274e-05
7.18408648856e-05
7.18387476274e-05
7.18377952138e-05
7.18361477325e-05
7.18350527687e-05
7.18337657093e-05
7.18322797646e-05
7.18309854693e-05
7.18293386961e-05
7.18276190999e-05
7.1825858299e-05
7.18240594808e-05
7.18224010924e-05
7.18208545909e-05
7.1819518297e-05
7.18183534921e-05
7.1816951513e-05
7.18146645873e-05
7.18136409779e-05
7.18118601629e-05
7.18101416619e-05
7.1808944506e-05
7.1807769691e-05
7.18063877499e-05
7.18048385298e-05
7.18033029228e-05
7.18018202317e-05
7.18005295687e-05
7.17996074399e-05
7.17990088993e-05
7.17973402787e-05
7.17944244009e-05
7.17914204437e-05
7.17887526519e-05
7.1786740356e-05
7.17855718232e-05
7.17847581198e-05
7.17838160549e-05
7.17823704517e-05
7.17811535271e-05
7.17789568794e-05
7.17773327956e-05
7.17759671235e-05
7.17746518805e-05
7.17731949547e-05
7.17717681199e-05
7.17701242576e-05
7.17684446257e-05
7.17669243795e-05
7.17655197168e-05
7.17647650315e-05
7.17629400796e-05
7.17614856777e-05
7.17596314216e-05
7.1757769195e-05
7.17560076354e-05
7.17540326197e-05
7.17518171982e-05
7.17496910085e-05
7.17476526765e-05
7.17457294419e-05
7.1744035168e-05
7.17425410587e-05
7.1741271575e-05
7.17400224326e-05
7.17384061555e-05
7.17366069194e-05
7.17354123553e-05
7.17342759296e-05
7.17325118169e-05
7.17305375466e-05
7.1728086168e-05
7.17257630759e-05
7.1724351571e-05
7.17233624304e-05
7.17221287312e-05
7.17211779277e-05
7.17196902056e-05
7.17183989127e-05
7.17159148671e-05
7.17136667762e-05
7.17119688454e-05
7.17103467754e-05
7.17084971028e-05
7.17065054964e-05
7.17045787356e-05
7.17030917148e-05
7.17017415565e-05
7.17001073259e-05
7.16981770296e-05
7.16960139888e-05
7.16937946765e-05
7.16919197105e-05
7.16906668022e-05
7.16897619566e-05
7.16885637579e-05
7.16870219955e-05
7.16858906223e-05
7.16837341193e-05
7.16814570723e-05
7.1679211434e-05
7.16773369157e-05
7.16756612811e-05
7.16739101476e-05
7.16718647969e-05
7.16694001273e-05
7.16669204926e-05
7.16650642928e-05
7.16640107317e-05
7.16634213615e-05
7.16622782214e-05
7.16606151086e-05
7.16590557185e-05
7.1657853738e-05
7.16565980894e-05
7.16541064492e-05
7.16517497426e-05
7.16498754993e-05
7.16482622309e-05
7.1647022148e-05
7.16458805821e-05
7.16445699762e-05
7.16435373286e-05
7.16425004357e-05
7.16411002996e-05
7.16385960265e-05
7.16363512931e-05
7.16345238304e-05
7.16327090327e-05
7.16308183693e-05
7.16287030836e-05
7.16264904903e-05
7.16242009354e-05
7.16218999114e-05
7.16197194859e-05
7.16178226894e-05
7.16161167643e-05
7.16144221297e-05
7.16127585219e-05
7.16110135589e-05
7.16090156037e-05
7.1606834975e-05
7.1604774743e-05
7.16029555185e-05
7.16012524206e-05
7.1599555916e-05
7.1597768408e-05
7.15958866547e-05
7.15939693733e-05
7.1591984801e-05
7.15899310234e-05
7.15879105525e-05
7.15861105412e-05
7.15845293038e-05
7.15829972862e-05
7.1581384491e-05
7.15796101544e-05
7.15776515681e-05
7.15755095168e-05
7.15733368181e-05
7.15711645899e-05
7.15689364508e-05
7.15668307863e-05
7.15648892699e-05
7.15630130873e-05
7.15610036984e-05
7.15589302351e-05
7.15567739683e-05
7.15545155193e-05
7.15520508893e-05
7.15494628428e-05
7.15468084642e-05
7.15444899024e-05
7.15425398977e-05
7.15410735856e-05
7.15399506541e-05
7.15388984962e-05
7.15375539253e-05
7.1535810385e-05
7.15340489573e-05
7.153239043e-05
7.15310927043e-05
7.15298133223e-05
7.1528316647e-05
7.15263372968e-05
7.15243146639e-05
7.1522604605e-05
7.15215472541e-05
7.15204687312e-05
7.15195608556e-05
7.15182949405e-05
7.15163929041e-05
7.15133669806e-05
7.15104619585e-05
7.1508297953e-05
7.15067172229e-05
7.15052377464e-05
7.15035812164e-05
7.15018364829e-05
7.14999644801e-05
7.14980604133e-05
7.14962502495e-05
7.14942331936e-05
7.1492024751e-05
7.14896704277e-05
7.14873086439e-05
7.14848500525e-05
7.14824376178e-05
7.14801290458e-05
7.14778364021e-05
7.14757001557e-05
7.14737191875e-05
7.14717714524e-05
7.146976636e-05
7.1467674942e-05
7.14654334566e-05
7.14630768225e-05
7.14606511722e-05
7.14582445668e-05
7.14559219814e-05
7.14536847022e-05
7.14514891098e-05
7.1449352302e-05
7.14472379958e-05
7.1445384369e-05
7.1443572017e-05
7.14418107589e-05
7.14399793835e-05
7.14379694269e-05
7.14359047827e-05
7.14338988984e-05
7.14320483223e-05
7.14302873894e-05
7.1428592003e-05
7.14268475179e-05
7.1425059622e-05
7.14232790532e-05
7.1421535868e-05
7.14198071712e-05
7.1418075204e-05
7.14163631578e-05
7.14145668857e-05
7.14125664683e-05
7.14105142872e-05
7.14084847746e-05
7.14062325388e-05
7.14038234474e-05
7.14011887057e-05
7.1398651463e-05
7.13961957133e-05
7.13939376701e-05
7.13918304994e-05
7.13897706235e-05
7.13876738507e-05
7.13855306404e-05
7.13833098091e-05
7.13810018599e-05
7.13786477125e-05
7.1376271205e-05
7.13739463894e-05
7.1371738435e-05
7.13696847037e-05
7.13677147563e-05
7.13658021227e-05
7.13640055986e-05
7.13620464884e-05
7.13600352149e-05
7.13580132954e-05
7.13559724217e-05
7.13538968064e-05
7.13517358483e-05
7.13496180313e-05
7.13475455052e-05
7.13456747341e-05
7.13436569596e-05
7.13415201965e-05
7.13392535484e-05
7.13369599164e-05
7.13347595761e-05
7.13327579693e-05
7.13309298824e-05
7.13291695165e-05
7.13273791708e-05
7.13255508228e-05
7.1323662676e-05
7.13216471399e-05
7.1319511312e-05
7.13171420367e-05
7.13145571665e-05
7.13118469607e-05
7.13090674618e-05
7.13063607836e-05
7.13039322353e-05
7.13016157916e-05
7.12994087703e-05
7.12973125503e-05
7.12952888248e-05
7.12932487685e-05
7.12911923295e-05
7.12891501588e-05
7.12871588099e-05
7.12852325304e-05
7.12833643636e-05
7.12815202902e-05
7.12796403904e-05
7.12776737479e-05
7.12756046207e-05
7.12734176048e-05
7.12711274058e-05
7.12687757946e-05
7.12664255015e-05
7.1264140684e-05
7.12619681184e-05
7.12598629963e-05
7.12577521346e-05
7.1255544931e-05
7.12531454719e-05
7.12504941017e-05
7.12475295728e-05
7.12444357096e-05
7.12413038185e-05
7.12382564667e-05
7.12353425553e-05
7.12323361949e-05
7.12292941589e-05
7.12264385888e-05
7.12238857614e-05
7.12216823907e-05
7.1219851343e-05
7.12182295068e-05
7.12166729124e-05
7.1215108644e-05
7.12134551812e-05
7.12116917495e-05
7.1209801757e-05
7.12077431579e-05
7.12056122162e-05
7.1203628273e-05
7.12018756309e-05
7.12002783537e-05
7.11987121364e-05
7.11971019021e-05
7.11954358197e-05
7.11937239334e-05
7.11919871171e-05
7.11902182075e-05
7.11883500938e-05
7.11863235026e-05
7.11842771984e-05
7.11822879379e-05
7.1180369482e-05
7.11784678767e-05
7.11764702678e-05
7.11742726962e-05
7.11717944243e-05
7.11689849664e-05
7.11658092432e-05
7.11623228237e-05
7.11586922692e-05
7.115520592e-05
7.11520571687e-05
7.11493389636e-05
7.11467928828e-05
7.11443020521e-05
7.11419108887e-05
7.113947125e-05
7.11369676944e-05
7.113429268e-05
7.11317891875e-05
7.11295147349e-05
7.11275119347e-05
7.11256466045e-05
7.11240105668e-05
7.11228172632e-05
7.11219999071e-05
7.11213767011e-05
7.11203566271e-05
7.11185242335e-05
7.11152629951e-05
7.11113599061e-05
7.11069125624e-05
7.11027040205e-05
7.10990804077e-05
7.10964601697e-05
7.10944561865e-05
7.10931609285e-05
7.10923200509e-05
7.10919048711e-05
7.10909328392e-05
7.10895298319e-05
7.10875605261e-05
7.10851505655e-05
7.1082800676e-05
7.10804892459e-05
7.10783084402e-05
7.1076340394e-05
7.10744868111e-05
7.10726338642e-05
7.10706673172e-05
7.10685093216e-05
7.10661123925e-05
7.10634393475e-05
7.10604969917e-05
7.10573178769e-05
7.10539378877e-05
7.10503844082e-05
7.10466754096e-05
7.10428968739e-05
7.10392758911e-05
7.10360019401e-05
7.10330804679e-05
7.10304792723e-05
7.10280946066e-05
7.10259907339e-05
7.10240073733e-05
7.10220402664e-05
7.1020068873e-05
7.10180753791e-05
7.10160138289e-05
7.10138691416e-05
7.10116515649e-05
7.10094762401e-05
7.1007324826e-05
7.10052119584e-05
7.10031242729e-05
7.10010494047e-05
7.09989691737e-05
7.09968789116e-05
7.09947764278e-05
7.09926422366e-05
7.09904782794e-05
7.09884406565e-05
7.09864923233e-05
7.09845050352e-05
7.09824570514e-05
7.09802392696e-05
7.09777679464e-05
7.09750904051e-05
7.09720807359e-05
7.09688742877e-05
7.09655243289e-05
7.09620975341e-05
7.09587293407e-05
7.09555732667e-05
7.09528788381e-05
7.09505767903e-05
7.09483916057e-05
7.09462875139e-05
7.0944184162e-05
7.09420382253e-05
7.09398294863e-05
7.09375831714e-05
7.09353366134e-05
7.09331185768e-05
7.09309433516e-05
7.0928821485e-05
7.09267299337e-05
7.09246576534e-05
7.09225573493e-05
7.09203915323e-05
7.09181332131e-05
7.09157621479e-05
7.09132686958e-05
7.09106558773e-05
7.09079313844e-05
7.09051026829e-05
7.09021661324e-05
7.08991232876e-05
7.08960014049e-05
7.08928524219e-05
7.08897006418e-05
7.08865423427e-05
7.08834057404e-05
7.08803860177e-05
7.08775232288e-05
7.08748255762e-05
7.08722207117e-05
7.08697171677e-05
7.08672539599e-05
7.08647233784e-05
7.08621645181e-05
7.08599389196e-05
7.08582084612e-05
7.08569450422e-05
7.08559413142e-05
7.08532003521e-05
7.08517917757e-05
7.08504964659e-05
7.08483140599e-05
7.0845897982e-05
7.08428517942e-05
7.08396736298e-05
7.08372012694e-05
7.08358261434e-05
7.08348967966e-05
7.08320455918e-05
7.08292239502e-05
7.08281555323e-05
7.08263791054e-05
7.08227095427e-05
7.0820088332e-05
7.08180794408e-05
7.08156830853e-05
7.08122965104e-05
7.08099939947e-05
7.08070157916e-05
7.08042797387e-05
7.08018051106e-05
7.07990805723e-05
7.07965139769e-05
7.07940673555e-05
7.07915713755e-05
7.0789174584e-05
7.07867424889e-05
7.07843789213e-05
7.0782032603e-05
7.07796722264e-05
7.07772512198e-05
7.07747180465e-05
7.07720453792e-05
7.0769172227e-05
7.07660637821e-05
7.07627044087e-05
7.07590972405e-05
7.07552525935e-05
7.07512447783e-05
7.07472150424e-05
7.07434017872e-05
7.07398338067e-05
7.07366067041e-05
7.07336539788e-05
7.07309336211e-05
7.0728173888e-05
7.07255073808e-05
7.07228694249e-05
7.07202838375e-05
7.07177430747e-05
7.07153077904e-05
7.07128834391e-05
7.07107055077e-05
7.07083268838e-05
7.07060117042e-05
7.07038234384e-05
7.07014804953e-05
7.06991882038e-05
7.06971480605e-05
7.06949002182e-05
7.06926648335e-05
7.06903213302e-05
7.06879947832e-05
7.06856251799e-05
7.06832108018e-05
7.06806946685e-05
7.06783764957e-05
7.06761896638e-05
7.06739649e-05
7.06718039623e-05
7.06696008183e-05
7.06674304361e-05
7.06653387368e-05
7.06631289337e-05
7.0660981991e-05
7.06588612463e-05
7.06567485978e-05
7.06546438824e-05
7.06525517263e-05
7.06504516632e-05
7.06483053444e-05
7.0646086622e-05
7.06437355621e-05
7.06412414172e-05
7.06386423179e-05
7.06360077485e-05
7.06333842052e-05
7.06307839941e-05
7.0628184236e-05
7.06255452155e-05
7.06227708176e-05
7.06198164079e-05
7.0616598235e-05
7.06130771429e-05
7.06092919902e-05
7.0605364653e-05
7.06014378763e-05
7.05976657107e-05
7.05941557675e-05
7.05909250639e-05
7.05879134191e-05
7.05850418371e-05
7.0582255781e-05
7.05795181363e-05
7.05768050979e-05
7.05740893747e-05
7.05713163043e-05
7.05687310021e-05
7.05663505898e-05
7.05632987196e-05
7.05604868337e-05
7.05575916932e-05
7.05547474196e-05
7.05519123856e-05
7.0549145602e-05
7.0546396471e-05
7.0543718022e-05
7.05411473643e-05
7.05386819615e-05
7.05362264062e-05
7.05336128098e-05
7.0530787114e-05
7.05278827035e-05
7.05249166224e-05
7.05218014744e-05
7.0518655172e-05
7.05157949298e-05
7.05128036829e-05
7.0509874041e-05
7.05070566107e-05
7.05044185616e-05
7.05018872965e-05
7.04993134194e-05
7.04965567126e-05
7.04935506818e-05
7.04902649161e-05
7.04868406264e-05
7.04834074302e-05
7.04800890141e-05
7.04772028157e-05
7.04742358236e-05
7.04713197686e-05
7.04684888056e-05
7.04657230846e-05
7.04630858493e-05
7.04605831346e-05
7.04583063084e-05
7.0456198403e-05
7.04541836009e-05
7.04521715331e-05
7.04501108693e-05
7.04479962292e-05
7.0445805247e-05
7.0443540828e-05
7.04412465151e-05
7.04389346393e-05
7.0436613532e-05
7.04342923923e-05
7.04319765758e-05
7.04296827318e-05
7.04274140465e-05
7.04251913769e-05
7.04230494155e-05
7.04210417163e-05
7.04192416634e-05
7.04177490161e-05
7.04166437542e-05
7.04158755335e-05
7.04147684892e-05
7.04123587565e-05
7.04089549955e-05
7.04053935638e-05
7.04019748851e-05
7.039865705e-05
7.03955042208e-05
7.03924301046e-05
7.03892476312e-05
7.03858316869e-05
7.03821209239e-05
7.03781318298e-05
7.03739083591e-05
7.03694630433e-05
7.03648488222e-05
7.03602563039e-05
7.03562446047e-05
7.03521195462e-05
7.03480597673e-05
7.03440616939e-05
7.03402782408e-05
7.03367524831e-05
7.0333496135e-05
7.03305110565e-05
7.03277285146e-05
7.03250822916e-05
7.03225114878e-05
7.03199605529e-05
7.03173995756e-05
7.03148309669e-05
7.0312272871e-05
7.03096963754e-05
7.03071428234e-05
7.03046355989e-05
7.03020790481e-05
7.02996197889e-05
7.02972168386e-05
7.02948036771e-05
7.02925061319e-05
7.02902807865e-05
7.02881017495e-05
7.02859567589e-05
7.02839772949e-05
7.02820485113e-05
7.02800814048e-05
7.02782226689e-05
7.02763984826e-05
7.02747581404e-05
7.02729913376e-05
7.0271151115e-05
7.02694742391e-05
7.02676669594e-05
7.0265964886e-05
7.02641332981e-05
7.02622199404e-05
7.02601996159e-05
7.02580755777e-05
7.02558089703e-05
7.02533986281e-05
7.02508683966e-05
7.0248254549e-05
7.024554648e-05
7.02426622987e-05
7.02399299038e-05
7.02368767796e-05
7.02333700206e-05
7.02293788473e-05
7.02249280422e-05
7.02201763211e-05
7.02150896217e-05
7.02097890576e-05
7.02044585005e-05
7.01997749605e-05
7.01952684324e-05
7.01911728588e-05
7.01875337026e-05
7.01842705046e-05
7.01813043298e-05
7.01785477625e-05
7.0175868742e-05
7.01731833078e-05
7.01704776549e-05
7.01677374797e-05
7.01649587041e-05
7.01621502595e-05
7.01592984057e-05
7.01563965404e-05
7.01534589659e-05
7.01505204692e-05
7.01476229325e-05
7.01448061396e-05
7.01420981723e-05
7.01395032548e-05
7.01369698418e-05
7.01344290737e-05
7.01321446778e-05
7.01297468718e-05
7.01273424623e-05
7.01249488272e-05
7.01225547654e-05
7.0120148789e-05
7.0117680766e-05
7.01151392357e-05
7.01124770589e-05
7.01096541113e-05
7.0106619367e-05
7.01033104097e-05
7.00996761897e-05
7.0095696014e-05
7.00913062812e-05
7.00869758242e-05
7.00826865233e-05
7.00780275622e-05
7.00735274592e-05
7.00693271455e-05
7.00654954325e-05
7.00620150708e-05
7.00589254378e-05
7.00560876138e-05
7.00534195509e-05
7.00508691382e-05
7.00483673384e-05
7.00458425115e-05
7.00432981146e-05
7.00408255114e-05
7.00382756649e-05
7.00357376237e-05
7.00332794798e-05
7.00308925333e-05
7.00288797839e-05
7.00271571308e-05
7.00260121946e-05
7.00252159488e-05
7.00246251423e-05
7.00231545484e-05
7.00207261126e-05
7.00181165295e-05
7.00156513365e-05
7.00128888963e-05
7.00099706817e-05
7.00072018714e-05
7.00039276036e-05
7.00001806155e-05
6.99959095852e-05
6.99911898551e-05
6.99862359297e-05
6.99812740317e-05
6.99767918583e-05
6.99729315394e-05
6.99696390647e-05
6.99670925059e-05
6.99648475536e-05
6.99631331675e-05
6.99619376338e-05
6.99613602635e-05
6.99600678005e-05
6.9958011935e-05
6.99551977138e-05
6.99522365768e-05
6.99490974626e-05
6.99465802352e-05
6.99441194244e-05
6.99416716956e-05
6.99393513501e-05
6.99371252694e-05
6.99349357552e-05
6.99328028993e-05
6.99307504059e-05
6.99287670171e-05
6.99268201017e-05
6.99248450517e-05
6.99227946362e-05
6.99205862072e-05
6.99181686818e-05
6.99154817469e-05
6.99124777833e-05
6.99090985736e-05
6.99052947201e-05
6.99010622401e-05
6.98964573131e-05
6.98916351023e-05
6.98868361349e-05
6.98823091544e-05
6.98782608499e-05
6.98747786119e-05
6.98716272403e-05
6.98686269233e-05
6.98657250718e-05
6.98627338001e-05
6.98595903904e-05
6.98562529208e-05
6.98528399083e-05
6.98494086672e-05
6.9846130024e-05
6.98430913968e-05
6.98403634735e-05
6.98378818276e-05
6.98355389989e-05
6.98332966567e-05
6.98310733993e-05
6.98288392179e-05
6.9826569784e-05
6.9824250346e-05
6.98218886505e-05
6.98194443875e-05
6.98168954996e-05
6.98141443842e-05
6.98112072256e-05
6.98079927313e-05
6.98046394619e-05
6.98007936256e-05
6.9796841244e-05
6.97927591197e-05
6.97886676339e-05
6.97846169595e-05
6.97806728284e-05
6.9776878655e-05
6.97732622845e-05
6.97698001635e-05
6.97664597969e-05
6.97632025445e-05
6.97599812188e-05
6.97567786824e-05
6.97535747759e-05
6.97503724727e-05
6.9747186848e-05
6.97440443421e-05
6.97409492326e-05
6.97377319788e-05
6.97347261561e-05
6.97319956446e-05
6.97290540141e-05
6.97261121016e-05
6.97230833748e-05
6.97200113095e-05
6.9716918437e-05
6.9713871318e-05
6.97109931192e-05
6.97083317643e-05
6.97058510735e-05
6.97034922023e-05
6.97011067627e-05
6.96985784638e-05
6.96957988766e-05
6.96929115034e-05
6.96901788832e-05
6.96872510658e-05
6.96843910248e-05
6.96815811175e-05
6.96787655648e-05
6.96759362652e-05
6.96730198438e-05
6.96700198642e-05
6.96669695377e-05
6.96637622089e-05
6.96604687085e-05
6.96569671954e-05
6.96533453005e-05
6.96495492998e-05
6.96455543225e-05
6.96412893774e-05
6.9636889124e-05
6.96323686475e-05
6.96278260414e-05
6.96233387269e-05
6.96191010171e-05
6.96151517864e-05
6.96114937093e-05
6.9608052826e-05
6.96044982616e-05
6.96009522892e-05
6.95973061728e-05
6.9593873642e-05
6.95906751528e-05
6.958808588e-05
6.95856699247e-05
6.95834628389e-05
6.95813489119e-05
6.95793816506e-05
6.95773381756e-05
6.95750750743e-05
6.95726517807e-05
6.95700935222e-05
6.95674595731e-05
6.95647954317e-05
6.95621098496e-05
6.95594262376e-05
6.95567508103e-05
6.95541162086e-05
6.95515820379e-05
6.95491595673e-05
6.95468219271e-05
6.95447997807e-05
6.95430047718e-05
6.95412323418e-05
6.95394523234e-05
6.9537660402e-05
6.95358525223e-05
6.95339723295e-05
6.95319859635e-05
6.95298411342e-05
6.95274922564e-05
6.95249021452e-05
6.95220127669e-05
6.95187904826e-05
6.95152342376e-05
6.95113583699e-05
6.95071562015e-05
6.95026294616e-05
6.94978293378e-05
6.94928191877e-05
6.94877695187e-05
6.94829632382e-05
6.94776992449e-05
6.94723619995e-05
6.94671609043e-05
6.94620776007e-05
6.94572200583e-05
6.94526388022e-05
6.94480264227e-05
6.9443439273e-05
6.9438848241e-05
6.94345824334e-05
6.94306959012e-05
6.94272347862e-05
6.94245863156e-05
6.94231295068e-05
6.94217155816e-05
6.94177892808e-05
6.94145595195e-05
6.94132958132e-05
6.94116459443e-05
6.94087648255e-05
6.94053559481e-05
6.94015903985e-05
6.93978819615e-05
6.93947755453e-05
6.9392929182e-05
6.93916953524e-05
6.93904077898e-05
6.93873840552e-05
6.93860108087e-05
6.93845642325e-05
6.93814116888e-05
6.93784779413e-05
6.93764092735e-05
6.93746739948e-05
6.93722310465e-05
6.93694564342e-05
6.93669894986e-05
6.93635206145e-05
6.93595450419e-05
6.93548500161e-05
6.93496097618e-05
6.93441655347e-05
6.9338852499e-05
6.93336675332e-05
6.93286586388e-05
6.93239401907e-05
6.93197637277e-05
6.93159503822e-05
6.93125895724e-05
6.93094475583e-05
6.93066214878e-05
6.93041238536e-05
6.93018239165e-05
6.93000401993e-05
6.92983836067e-05
6.92967182754e-05
6.92952129849e-05
6.92935276709e-05
6.92921176875e-05
6.92906331732e-05
6.92892130226e-05
6.92872135099e-05
6.9284741682e-05
6.92818492778e-05
6.92785896313e-05
6.92753708351e-05
6.92728310578e-05
6.92707193136e-05
6.92688891751e-05
6.92671328011e-05
6.92652155192e-05
6.92630093034e-05
6.92606846908e-05
6.92584749865e-05
6.92564717496e-05
6.92545032797e-05
6.92522814735e-05
6.92495705347e-05
6.92462997292e-05
6.92426309783e-05
6.92386018396e-05
6.92342675118e-05
6.92298614108e-05
6.92256737386e-05
6.92215828948e-05
6.9217932224e-05
6.92139865678e-05
6.92101026478e-05
6.92067275108e-05
6.92037834117e-05
6.92008979104e-05
6.91978324407e-05
6.91946947496e-05
6.91913719696e-05
6.91880226134e-05
6.91846762715e-05
6.91812262749e-05
6.91776203379e-05
6.91739810806e-05
6.91703454643e-05
6.91666140064e-05
6.91624236411e-05
6.91581584672e-05
6.91536527621e-05
6.91486991081e-05
6.91437443637e-05
6.91390420712e-05
6.91345584261e-05
6.91304399258e-05
6.91264955675e-05
6.91226819529e-05
6.91188837124e-05
6.91151039153e-05
6.9111268147e-05
6.91075304929e-05
6.91037659966e-05
6.91002385462e-05
6.90968494323e-05
6.90935651819e-05
6.90909240734e-05
6.90879419924e-05
6.90850155309e-05
6.90820903305e-05
6.90791899988e-05
6.90763531271e-05
6.90736021309e-05
6.90709408821e-05
6.9068351999e-05
6.90657981889e-05
6.90632191685e-05
6.90605840072e-05
6.90578874899e-05
6.90551254422e-05
6.90523067243e-05
6.90494337321e-05
6.90465021236e-05
6.90434856731e-05
6.90404126715e-05
6.90372969039e-05
6.90341488223e-05
6.90309786968e-05
6.90277847697e-05
6.90245734707e-05
6.90213558766e-05
6.90181259152e-05
6.90148456145e-05
6.90114971602e-05
6.90081048339e-05
6.90046826644e-05
6.9001196326e-05
6.89976306088e-05
6.89939566736e-05
6.89901637361e-05
6.89862470055e-05
6.89822437992e-05
6.8978189745e-05
6.89740884278e-05
6.89699930425e-05
6.89658993907e-05
6.89618223327e-05
6.89577682579e-05
6.89537003175e-05
6.89494756916e-05
6.89451698497e-05
6.89407079986e-05
6.89360355303e-05
6.89311790991e-05
6.89260690728e-05
6.89207760236e-05
6.89154948133e-05
6.89103261778e-05
6.89053812114e-05