/*--------------------------------*- C++ -*----------------------------------*\
  =========                 |
  \\      /  F ield         | OpenFOAM: The Open Source CFD Toolbox
   \\    /   O peration     | Website:  https://openfoam.org
    \\  /    A nd           | Version:  6
     \\/     M anipulation  |
\*---------------------------------------------------------------------------*/
FoamFile
{
    version     2.0;
    format      ascii;
    class       volScalarField;
    location    "0.0005";
    object      H2O;
}
// * * * * * * * * * * * * * * * * * * * * * * * * * * * * * * * * * * * * * //

dimensions      [0 0 0 0 0 0 0];

internalField   nonuniform List<scalar> 
32000
(
0.113327461904
0.113327462091
0.11332746232
0.113327462561
0.113327462935
0.113327463205
0.113327463553
0.113327463996
0.113327464508
0.113327464922
0.113327465462
0.113327465946
0.113327466792
0.113327467493
0.113327468293
0.113327468917
0.113327469345
0.113327470078
0.113327470889
0.113327471631
0.113327472605
0.113327473674
0.113327474364
0.113327475046
0.113327476037
0.113327477204
0.113327478167
0.113327479484
0.113327480822
0.113327482133
0.113327483151
0.113327484459
0.113327486047
0.113327487264
0.113327488809
0.113327489956
0.113327491012
0.113327492887
0.113327494378
0.113327495334
0.113327496686
0.11332749863
0.1133275005
0.113327503337
0.113327505902
0.113327508283
0.113327509984
0.113327511674
0.113327514177
0.113327515776
0.113327517017
0.113327518865
0.11332752081
0.113327522836
0.113327524875
0.113327526628
0.11332753043
0.113327533085
0.113327535701
0.113327538179
0.113327539762
0.113327542026
0.113327545234
0.11332754706
0.113327548328
0.113327550303
0.113327552507
0.113327557127
0.113327559789
0.113327562979
0.113327565426
0.113327568109
0.113327570232
0.113327571927
0.113327574912
0.113327578497
0.113327581678
0.113327587239
0.113327590602
0.113327593952
0.113327596355
0.113327599815
0.113327601818
0.11332760395
0.113327607893
0.113327610106
0.113327613292
0.113327615832
0.113327618464
0.113327621655
0.113327628377
0.113327636354
0.113327641484
0.113327646129
0.113327649281
0.113327651393
0.11332765368
0.113327656508
0.113327660029
0.113327665841
0.11332766926
0.113327671108
0.11332767357
0.113327676759
0.113327679211
0.113327684515
0.113327693031
0.11332769803
0.113327701385
0.113327703582
0.113327706753
0.113327711803
0.113327717522
0.113327720738
0.113327723267
0.113327725491
0.113327731574
0.113327741753
0.113327748413
0.113327752351
0.113327756031
0.113327759028
0.113327762216
0.113327764938
0.113327771643
0.113327777292
0.113327782672
0.113327788617
0.113327793562
0.113327796996
0.113327799435
0.113327802724
0.11332780613
0.113327809582
0.113327816049
0.113327825326
0.113327829376
0.113327832086
0.113327838721
0.113327845833
0.113327858385
0.113327869174
0.113327877451
0.11332788175
0.113327884783
0.113327888339
0.113327891706
0.113327897507
0.113327901912
0.113327907731
0.113327911718
0.113327914134
0.113327919351
0.113327922688
0.113327926185
0.113327928625
0.11332793422
0.113327945623
0.113327956065
0.113327965175
0.113327972159
0.113327977673
0.113327982848
0.113327987582
0.113327991804
0.11332799597
0.113328000875
0.113328007424
0.113328012946
0.113328016842
0.113328020959
0.113328027236
0.113328035639
0.113328045892
0.113328056233
0.113328066663
0.113328076917
0.113328085827
0.113328094537
0.113328104071
0.113328112452
0.113328117994
0.113328121768
0.113328125053
0.113328133574
0.113328139958
0.113328144295
0.113328147012
0.11332814945
0.113328155607
0.113328164513
0.113328169877
0.113328172599
0.113328177789
0.113328187195
0.113328194584
0.113328198897
0.113328201602
0.113328208157
0.113328217861
0.113328229834
0.113328241377
0.113328251515
0.113328259238
0.113328265568
0.113328271833
0.113328279022
0.113328287162
0.113328295827
0.113328303664
0.113328309692
0.113328314834
0.113328319074
0.113328323034
0.113328329362
0.113328338015
0.113328348267
0.113328359663
0.113328371318
0.113328383767
0.113328395051
0.11332840357
0.113328416861
0.113328423786
0.113328430135
0.113328437039
0.113328444473
0.113328453395
0.113328462061
0.113328470437
0.113328476831
0.11332848197
0.113328485045
0.113328488739
0.11332849924
0.113328508345
0.113328513912
0.113328515928
0.113328522873
0.113328534573
0.113328545798
0.113328555681
0.113328565164
0.113328574676
0.113328584739
0.11332859519
0.113328604985
0.113328613979
0.113328622788
0.113328631677
0.113328641113
0.113328651121
0.113328662855
0.113328674595
0.113328684408
0.113328691211
0.113328696045
0.113328700893
0.113328705918
0.113328711478
0.113328725585
0.11332873352
0.113328741202
0.113328747257
0.113328755498
0.113328770662
0.11332878469
0.113328797025
0.113328807735
0.113328817384
0.113328826795
0.113328836063
0.11332884422
0.113328851102
0.113328858008
0.113328863379
0.113328869269
0.113328875975
0.113328883103
0.113328892937
0.113328902911
0.113328914536
0.113328926167
0.113328938638
0.113328950522
0.113328961725
0.113328972184
0.113328982606
0.113328993616
0.113329005125
0.113329017654
0.113329030328
0.113329043897
0.113329055615
0.113329065297
0.113329074832
0.113329083886
0.113329093606
0.113329105522
0.113329118465
0.113329130932
0.113329139634
0.113329146019
0.113329151253
0.113329156154
0.113329161604
0.11332916826
0.113329176928
0.113329187614
0.113329199718
0.11332921156
0.113329222081
0.113329231292
0.113329239854
0.113329248
0.113329257253
0.113329266778
0.113329276647
0.113329289441
0.113329301072
0.113329312375
0.11332932316
0.113329333788
0.113329344779
0.113329356596
0.113329369878
0.113329384634
0.11332939993
0.113329413531
0.113329424834
0.113329434085
0.113329441197
0.11332944693
0.113329453388
0.113329461098
0.113329470562
0.113329481855
0.113329495065
0.113329509966
0.113329526411
0.113329543573
0.113329561942
0.113329579367
0.113329594026
0.113329605743
0.113329615089
0.113329622752
0.113329630202
0.113329638671
0.113329649438
0.113329661633
0.113329674516
0.113329687078
0.113329699198
0.113329711455
0.113329724569
0.113329738889
0.113329753887
0.11332976839
0.113329782397
0.113329795035
0.113329805536
0.113329814785
0.11332982231
0.113329827043
0.11332983198
0.113329837451
0.113329852735
0.113329864617
0.113329871309
0.11332987518
0.113329883741
0.113329896929
0.113329909964
0.113329923729
0.113329937925
0.113329952756
0.113329968451
0.113329985526
0.113330002981
0.113330018311
0.113330030058
0.113330040658
0.11333005267
0.113330066169
0.113330081161
0.113330096608
0.113330110547
0.11333012265
0.113330133733
0.113330143921
0.113330153827
0.113330164436
0.113330175409
0.113330186584
0.113330197631
0.113330208334
0.11333021982
0.113330231852
0.113330243979
0.113330256325
0.113330269117
0.113330282473
0.113330296781
0.11333031155
0.113330328151
0.113330343948
0.113330359241
0.113330373802
0.113330387819
0.113330401727
0.113330416101
0.11333043155
0.113330447725
0.113330463549
0.113330477382
0.113330488705
0.113330498773
0.113330507391
0.113330516642
0.113330529307
0.113330542618
0.113330556868
0.113330571984
0.113330587477
0.113330603309
0.11333061958
0.113330635178
0.113330653768
0.113330677668
0.113330695507
0.113330710333
0.113330723715
0.113330735914
0.113330746947
0.113330756943
0.113330766304
0.113330775649
0.113330785471
0.113330795345
0.11333080607
0.113330819369
0.113330834966
0.113330851607
0.113330867793
0.113330880872
0.113330890075
0.11333089631
0.113330903187
0.113330908954
0.113330917444
0.113330928612
0.113330944979
0.113330963565
0.11333098309
0.113331000851
0.113331012749
0.113331023008
0.113331041769
0.113331073351
0.113331103557
0.113331120215
0.113331131852
0.113331143061
0.113331157218
0.113331178303
0.113331186837
0.113331194894
0.113331205376
0.113331217325
0.113331231754
0.113331247867
0.113331264238
0.113331281231
0.113331300824
0.113331321914
0.11333134172
0.113331358059
0.113331370754
0.113331381158
0.113331391473
0.113331401777
0.113331412616
0.113331424888
0.113331437158
0.113331450248
0.113331465696
0.113331482768
0.113331500743
0.113331517403
0.113331533378
0.113331557316
0.113331571486
0.113331588691
0.113331597917
0.113331613103
0.113331626192
0.113331646451
0.113331661199
0.113331683151
0.113331693028
0.113331710114
0.113331721471
0.113331734822
0.113331750235
0.11333176366
0.113331780739
0.113331798572
0.113331816832
0.113331835486
0.113331852683
0.11333186872
0.113331882576
0.113331894654
0.113331909191
0.113331932903
0.113331943517
0.113331961982
0.113331979803
0.113331992218
0.113332004405
0.113332018739
0.113332034808
0.113332050735
0.113332066112
0.113332079496
0.113332089058
0.113332095264
0.113332112564
0.113332142792
0.113332173929
0.113332201579
0.113332222435
0.113332234546
0.113332242981
0.113332252746
0.113332267733
0.113332280349
0.113332303123
0.113332319964
0.113332334128
0.113332347774
0.113332362891
0.113332377693
0.113332394741
0.113332412159
0.113332427923
0.113332442487
0.113332450312
0.113332469234
0.113332484313
0.113332503537
0.113332522843
0.113332541105
0.113332561579
0.113332584544
0.113332606583
0.11333262771
0.113332647644
0.113332665204
0.11333268069
0.113332693848
0.113332706796
0.113332723552
0.113332742205
0.11333275459
0.113332766373
0.113332784664
0.113332805134
0.113332830552
0.113332854641
0.113332869278
0.113332879534
0.113332892325
0.113332902183
0.113332917608
0.113332930996
0.113332956749
0.113332980055
0.113332997656
0.113333014471
0.113333033644
0.113333054286
0.113333074255
0.113333089667
0.113333103661
0.113333120601
0.113333140611
0.113333163034
0.113333186041
0.11333320548
0.113333218469
0.113333227851
0.113333240273
0.113333256257
0.113333267986
0.113333290341
0.113333313944
0.11333333722
0.11333335665
0.113333374018
0.113333392171
0.113333413374
0.113333438923
0.113333464626
0.113333483867
0.113333494789
0.113333500899
0.113333512751
0.113333529995
0.113333546164
0.113333558628
0.113333571649
0.113333597488
0.113333621929
0.11333364137
0.113333658106
0.113333670968
0.113333682807
0.113333696398
0.113333707106
0.113333717857
0.113333732374
0.113333758338
0.11333378161
0.113333800553
0.113333819365
0.113333838963
0.113333860887
0.113333883819
0.113333907547
0.113333931393
0.113333953988
0.113333973643
0.113333991321
0.113334008882
0.113334026123
0.113334044207
0.113334064915
0.113334087517
0.113334108871
0.113334127728
0.113334145382
0.113334162968
0.113334181497
0.113334201003
0.113334220877
0.113334241446
0.113334262732
0.113334283672
0.113334302327
0.113334318714
0.113334334593
0.113334351309
0.113334369701
0.113334390002
0.113334412205
0.113334434724
0.113334457236
0.113334480328
0.113334502149
0.11333452227
0.113334541713
0.113334562537
0.113334584025
0.11333460637
0.113334629772
0.113334655311
0.113334682127
0.113334709632
0.113334733659
0.113334753868
0.113334769066
0.113334780706
0.113334791614
0.113334805554
0.113334823631
0.113334841895
0.113334859091
0.113334872547
0.113334885813
0.113334901333
0.113334921859
0.113334942833
0.113334960566
0.113334971531
0.113334982715
0.113334992129
0.113335005255
0.113335024974
0.113335056344
0.113335086458
0.11333510889
0.113335125276
0.113335140614
0.113335157787
0.113335175874
0.113335195281
0.113335215019
0.113335233781
0.113335254686
0.113335277572
0.113335301969
0.113335326442
0.113335351918
0.113335376915
0.113335400836
0.113335424593
0.113335446729
0.113335467257
0.113335487442
0.113335508222
0.113335529898
0.113335553128
0.11333557755
0.113335602687
0.113335627624
0.11333565169
0.11333567487
0.113335697619
0.113335719759
0.113335741666
0.113335760874
0.113335779656
0.113335797909
0.113335816891
0.113335837726
0.113335859128
0.113335879921
0.113335899105
0.11333591736
0.113335934937
0.113335953024
0.11333597156
0.113335990021
0.113336008094
0.113336026016
0.113336043971
0.113336061719
0.11333608034
0.113336101074
0.113336122345
0.113336143378
0.113336166719
0.113336191683
0.113336218985
0.113336245275
0.11333627072
0.113336294117
0.113336315951
0.113336337296
0.113336359025
0.113336381235
0.113336404251
0.11333642817
0.113336452567
0.113336477197
0.11333650129
0.113336524172
0.113336545456
0.113336565872
0.113336585695
0.113336604316
0.113336624622
0.113336645469
0.113336666426
0.113336687579
0.113336709091
0.113336731486
0.113336753434
0.113336774913
0.113336794301
0.113336815214
0.11333683736
0.113336860853
0.113336884626
0.113336907431
0.113336928177
0.113336947124
0.113336965369
0.113336983926
0.113337002876
0.113337022447
0.113337043337
0.113337065472
0.113337090024
0.113337116808
0.113337144889
0.113337173686
0.113337201728
0.113337226889
0.113337250889
0.113337273758
0.11333729548
0.113337316454
0.113337337598
0.113337358914
0.113337380083
0.113337400725
0.113337420694
0.113337440061
0.113337459178
0.113337478666
0.113337499054
0.113337520502
0.113337543172
0.113337566911
0.113337591284
0.113337615643
0.113337639323
0.11333766184
0.113337683658
0.113337705537
0.113337728413
0.113337753282
0.113337780759
0.113337811478
0.113337843534
0.11333787598
0.113337907548
0.113337937734
0.113337968878
0.113338000394
0.11333802998
0.113338056432
0.113338079266
0.113338098244
0.113338115056
0.113338131193
0.113338147412
0.113338164557
0.113338182843
0.113338202441
0.113338223788
0.113338245885
0.113338266458
0.113338284633
0.113338301197
0.113338317439
0.113338334138
0.113338351416
0.113338369168
0.113338387177
0.113338405519
0.113338424887
0.113338445899
0.113338467114
0.113338487736
0.113338507625
0.113338527337
0.113338548044
0.11333857082
0.113338596502
0.113338625612
0.113338658512
0.113338694629
0.113338732235
0.113338768347
0.113338800961
0.113338829117
0.113338855493
0.113338881299
0.113338906076
0.113338931359
0.113338957309
0.113338985037
0.113339010991
0.113339034572
0.113339055338
0.113339074679
0.113339091643
0.113339104017
0.113339112493
0.113339118955
0.113339129531
0.113339148526
0.113339182332
0.113339222786
0.113339268877
0.11333931249
0.113339350041
0.113339377194
0.113339397964
0.11333941139
0.113339420108
0.113339424414
0.113339434495
0.113339449046
0.11333946947
0.113339494464
0.113339518835
0.113339542806
0.113339565423
0.113339585834
0.113339605057
0.113339624273
0.113339644666
0.113339667042
0.113339691891
0.113339719599
0.113339750094
0.113339783039
0.113339818062
0.11333985488
0.113339893306
0.11333993245
0.113339969962
0.113340003878
0.113340034144
0.113340061094
0.113340085803
0.113340107605
0.113340128161
0.113340148552
0.113340168989
0.113340189659
0.113340211035
0.113340233275
0.113340256271
0.11334027883
0.11334030114
0.113340323051
0.113340344702
0.113340366219
0.113340387792
0.113340409469
0.113340431271
0.113340453402
0.113340475841
0.113340496968
0.113340517169
0.113340537773
0.113340559005
0.113340581995
0.113340607612
0.113340635363
0.113340666553
0.11334069978
0.113340734489
0.113340769993
0.113340804888
0.113340837585
0.113340865499
0.113340889351
0.113340911993
0.113340933799
0.1133409556
0.113340977844
0.113341000742
0.113341024031
0.113341047325
0.113341070323
0.113341092879
0.113341114881
0.11334113657
0.113341158059
0.113341179838
0.113341202295
0.11334122571
0.113341250292
0.113341276141
0.113341303225
0.113341331463
0.11334136078
0.113341391213
0.113341422745
0.113341455096
0.113341487726
0.113341520385
0.113341553111
0.113341585614
0.113341616907
0.113341646575
0.113341674535
0.113341701537
0.113341727491
0.113341753031
0.113341779274
0.113341805813
0.113341828898
0.113341846849
0.113341859955
0.113341870368
0.113341898803
0.113341913416
0.113341926854
0.113341949496
0.113341974562
0.113342006164
0.113342039134
0.113342064782
0.113342079046
0.113342088686
0.113342118261
0.113342147529
0.113342158611
0.113342177036
0.113342215094
0.113342242278
0.113342263109
0.113342287956
0.113342323071
0.113342346943
0.113342377821
0.113342406188
0.113342431847
0.113342460097
0.113342486713
0.113342512087
0.113342537975
0.113342562835
0.113342588062
0.113342612578
0.113342636915
0.113342661395
0.113342686501
0.113342712768
0.113342740478
0.113342770264
0.113342802486
0.113342837306
0.113342874691
0.113342914536
0.113342956071
0.113342997832
0.113343037349
0.113343074325
0.11334310777
0.113343138373
0.11334316657
0.113343195177
0.11334322282
0.113343250168
0.113343276976
0.113343303321
0.113343328574
0.113343353716
0.113343376305
0.113343400975
0.11334342499
0.11334344769
0.113343471994
0.113343495774
0.113343516938
0.113343540255
0.113343563444
0.113343587753
0.113343611886
0.113343636465
0.11334366151
0.113343687609
0.113343711656
0.113343734342
0.113343757422
0.113343779842
0.1133438027
0.113343825221
0.113343846927
0.113343869858
0.113343892139
0.113343914149
0.113343936076
0.113343957921
0.113343979636
0.113344001433
0.113344023709
0.113344046736
0.113344071134
0.113344097014
0.113344123981
0.113344151314
0.11334417853
0.113344205502
0.113344232468
0.113344259839
0.113344288612
0.11334431925
0.113344352621
0.113344389132
0.113344428379
0.113344469098
0.113344509811
0.113344548921
0.113344585313
0.113344618812
0.113344650041
0.11334467982
0.113344708715
0.113344737109
0.11334476525
0.113344793419
0.113344822185
0.113344849003
0.113344873696
0.113344905354
0.113344934524
0.113344964559
0.113344994067
0.113345023481
0.113345052189
0.113345080715
0.113345108509
0.113345135186
0.113345160771
0.113345186254
0.113345213376
0.113345242699
0.113345272837
0.113345303612
0.113345335932
0.113345368574
0.113345398246
0.113345429276
0.113345459666
0.11334548889
0.113345516252
0.113345542506
0.1133455692
0.11334559779
0.113345628964
0.113345663039
0.11334569855
0.113345734154
0.113345768568
0.113345798502
0.113345829276
0.113345859524
0.113345888892
0.113345917587
0.113345944951
0.113345970922
0.113345994551
0.11334601643
0.113346037345
0.113346058234
0.11334607963
0.113346101589
0.113346124342
0.113346147858
0.113346171686
0.113346195696
0.113346219802
0.113346243907
0.113346267957
0.113346291777
0.113346315336
0.113346338415
0.113346360655
0.1133463815
0.113346400189
0.113346415685
0.113346427159
0.113346435134
0.113346446624
0.113346471635
0.113346506961
0.113346543921
0.113346579397
0.113346613824
0.113346646536
0.113346678428
0.113346711442
0.113346746875
0.113346785363
0.113346826735
0.113346870534
0.11334691663
0.113346964475
0.113347012092
0.113347053685
0.113347096453
0.113347138544
0.113347179997
0.113347219226
0.113347255787
0.113347289557
0.113347320517
0.113347349381
0.113347376834
0.113347403507
0.113347429978
0.113347456555
0.113347483213
0.113347509763
0.113347536505
0.113347563012
0.11334758904
0.113347615582
0.113347641118
0.113347666074
0.113347691139
0.113347715007
0.113347738129
0.113347760774
0.113347783067
0.113347803643
0.113347823694
0.113347844146
0.113347863474
0.113347882444
0.113347899504
0.113347917881
0.113347937022
0.113347954465
0.113347973264
0.113347990968
0.113348010018
0.113348029916
0.113348050923
0.113348073005
0.113348096566
0.113348121616
0.113348147909
0.113348175066
0.113348203197
0.113348233152
0.113348261526
0.113348293225
0.113348329629
0.113348371056
0.113348417247
0.113348466555
0.113348519335
0.113348574329
0.113348629632
0.113348678221
0.113348724974
0.113348767465
0.113348805225
0.113348839088
0.113348869874
0.11334889849
0.113348926307
0.113348954196
0.113348982299
0.113349010762
0.113349039629
0.113349068805
0.113349098431
0.113349128578
0.113349159095
0.113349189621
0.113349219723
0.113349248986
0.11334927712
0.11334930408
0.113349330402
0.113349356801
0.113349380537
0.113349405452
0.113349430435
0.113349455306
0.11334948018
0.113349505177
0.113349530817
0.113349557219
0.113349584871
0.11334961419
0.113349645704
0.113349680061
0.113349717791
0.113349759106
0.113349804668
0.113349849609
0.11334989412
0.113349942463
0.113349989155
0.113350032735
0.113350072492
0.113350108607
0.113350140671
0.113350170128
0.113350197829
0.113350224316
0.113350250305
0.113350276541
0.113350302987
0.113350328693
0.113350355206
0.113350381602
0.113350407171
0.113350432003
0.113350452946
0.113350470873
0.113350482789
0.113350491077
0.113350497226
0.113350512531
0.113350537804
0.113350564957
0.113350590602
0.113350619332
0.11335064967
0.113350678444
0.113350712458
0.11335075137
0.113350795715
0.11335084471
0.113350896132
0.113350947634
0.113350994156
0.113351034225
0.113351068403
0.113351094844
0.11335111816
0.113351135971
0.113351148397
0.1133511544
0.113351167839
0.113351189221
0.113351218492
0.113351249296
0.113351281955
0.11335130815
0.113351333764
0.113351359246
0.113351383406
0.113351406589
0.113351429394
0.113351451611
0.11335147299
0.113351493647
0.113351513921
0.113351534481
0.11335155582
0.113351578795
0.113351603937
0.113351631872
0.113351663094
0.113351698206
0.113351737722
0.113351781681
0.113351829502
0.113351879575
0.113351929402
0.113351976404
0.113352018436
0.113352054593
0.113352087318
0.113352118481
0.113352148628
0.113352179712
0.113352212385
0.113352247081
0.113352282568
0.113352318249
0.113352352347
0.113352383952
0.11335241233
0.113352438148
0.113352462525
0.113352485859
0.113352508995
0.113352532245
0.113352555863
0.11335258
0.113352604576
0.11335263001
0.113352656531
0.113352685152
0.113352715705
0.113352749139
0.113352784011
0.113352824001
0.113352865093
0.11335290753
0.11335295006
0.113352992162
0.113353033153
0.113353072585
0.113353110167
0.113353146148
0.113353180865
0.113353214721
0.113353248207
0.113353281501
0.113353314812
0.113353348108
0.113353381232
0.113353413908
0.113353446091
0.113353479544
0.113353510799
0.113353539191
0.11335356978
0.113353600375
0.113353631875
0.113353663828
0.113353696001
0.113353727702
0.113353757648
0.11335378534
0.113353811156
0.113353835706
0.113353860535
0.113353886853
0.113353915788
0.113353945846
0.113353974294
0.113354004774
0.113354034548
0.113354063799
0.113354093107
0.113354122556
0.113354152909
0.113354184129
0.113354215869
0.113354249241
0.113354283505
0.113354319931
0.113354357605
0.113354397086
0.113354438633
0.113354482982
0.113354528734
0.113354575731
0.113354622953
0.113354669596
0.113354713642
0.113354754687
0.113354792707
0.113354828473
0.113354865425
0.113354902293
0.113354940209
0.11335497591
0.113355009183
0.113355036125
0.113355061269
0.113355084244
0.113355106256
0.113355126743
0.113355148028
0.113355171603
0.113355196848
0.113355223502
0.113355250946
0.113355278707
0.113355306696
0.113355334668
0.113355362559
0.113355390028
0.113355416453
0.113355441716
0.113355466097
0.113355487189
0.113355505913
0.113355524401
0.113355542968
0.113355561658
0.113355580512
0.113355600118
0.113355620828
0.113355643185
0.113355667665
0.113355694652
0.113355724751
0.113355758311
0.113355795341
0.113355835689
0.113355879425
0.113355926527
0.113355976462
0.11335602857
0.113356081078
0.113356131049
0.113356185774
0.113356241257
0.113356295323
0.113356348163
0.113356398658
0.113356446282
0.113356494236
0.113356541934
0.113356589681
0.113356634057
0.1133566745
0.113356710527
0.113356738102
0.113356753274
0.113356768004
0.113356808912
0.113356842568
0.113356855741
0.113356872941
0.113356902983
0.113356938533
0.113356977808
0.113357016493
0.113357048901
0.113357068166
0.113357081041
0.113357094477
0.113357126031
0.113357140362
0.113357155458
0.113357188358
0.113357218972
0.113357240554
0.11335725865
0.113357284121
0.113357313041
0.113357338732
0.113357374852
0.113357416229
0.11335746508
0.113357519592
0.113357576216
0.113357631468
0.113357685385
0.113357737471
0.11335778654
0.113357829979
0.11335786965
0.113357904627
0.113357937342
0.113357966783
0.113357992815
0.113358016797
0.113358035405
0.113358052694
0.113358070077
0.113358085792
0.113358103391
0.113358118116
0.113358133619
0.113358148452
0.113358169339
0.11335819516
0.113358225377
0.113358259432
0.113358293063
0.113358319602
0.113358341671
0.113358360801
0.113358379161
0.113358399205
0.113358422267
0.113358446565
0.113358469659
0.113358490589
0.113358511148
0.11335853434
0.113358562629
0.113358596749
0.113358635007
0.113358677006
0.113358722172
0.113358768077
0.113358811697
0.113358854296
0.113358892305
0.113358933385
0.113358973822
0.113359008966
0.113359039632
0.113359069699
0.113359101653
0.113359134369
0.11335916902
0.113359203953
0.113359238857
0.113359274841
0.113359312446
0.113359350391
0.113359388287
0.11335942717
0.113359470819
0.113359515235
0.113359562147
0.113359613712
0.11335966528
0.113359714218
0.113359760881
0.113359803747
0.113359844809
0.113359884518
0.113359924077
0.113359963455
0.113360003425
0.113360042384
0.11336008163
0.113360118414
0.113360153761
0.113360188018
0.11336021557
0.113360246682
0.113360277218
0.113360307746
0.113360338019
0.113360367634
0.113360396357
0.113360424147
0.113360451183
0.113360477854
0.113360504789
0.113360532307
0.113360560464
0.113360589301
0.113360618725
0.113360648711
0.113360679306
0.113360710782
0.113360742844
0.11336077535
0.113360808189
0.113360841256
0.113360874569
0.113360908062
0.113360941621
0.113360975311
0.113361009528
0.11336104446
0.113361079853
0.113361115561
0.113361151941
0.113361189149
0.113361227486
0.113361267062
0.113361307927
0.11336134969
0.113361391981
0.11336143476
0.113361477476
0.113361520171
0.113361562691
0.113361604969
0.11336164739
0.113361691442
0.113361736336
0.113361782852
0.113361831557
0.113361882174
0.113361935427
0.113361990582
0.113362045608
0.113362099458
0.113362150975
0.113362199402
0.113362244419
0.113362286016
0.113362325977
0.113362365467
0.113362404307
0.113362443654
0.113362483959
0.113362523956
0.113362562324
0.113362602056
0.113362639158
0.113362677727
0.113362713747
0.113362747057
0.113362777953
0.113362807519
0.11336283628
0.113362864454
0.113362892102
0.113362918979
0.11336294522
0.113362970796
0.113362997535
0.113363022479
0.113363047306
0.113363074238
0.113363099306
0.113363125074
0.113363150276
0.113363176774
0.113363200466
0.113363226353
0.113363252591
0.113363278056
0.113363304815
0.113363332258
0.113363358583
0.113363386126
0.113363413956
0.113363442855
0.113363473046
0.113363500923
0.113363526731
0.113363552928
0.113363574391
0.113363591161
0.113363609802
0.113363627522
0.113363653397
0.113363683312
0.113363715713
0.113363759423
0.113363811705
0.113363873641
0.113363936864
0.113363995011
0.113364042487
0.113364076108
0.113364099664
0.113364113719
0.113364122021
0.113364128541
0.113364151942
0.113364184545
0.11336421891
0.113364257171
0.113364292796
0.113364326908
0.113364358598
0.113364388992
0.113364419489
0.113364450873
0.113364483148
0.113364517781
0.113364554662
0.113364594356
0.113364637399
0.113364684003
0.113364734936
0.11336478942
0.113364843378
0.113364891555
0.11336493233
0.11336496671
0.113364996224
0.113365022298
0.113365046275
0.11336506846
0.113365088404
0.113365105484
0.113365121422
0.11336514021
0.113365157853
0.113365170596
0.11336518825
0.113365199112
0.113365216616
0.113365235745
0.11336524284
0.113365263035
0.113365297865
0.113365328084
0.113365359866
0.113365389942
0.113365411324
0.113365425381
0.113365438265
0.113365456217
0.113365475879
0.113365494891
0.113365512894
0.113365531251
0.113365551444
0.113365575005
0.113365603994
0.113365640126
0.11336568131
0.113365721818
0.113365760615
0.113365799422
0.113365839892
0.113365882359
0.113365926627
0.113365972899
0.113366021197
0.113366071384
0.113366122628
0.113366174365
0.113366226086
0.113366277299
0.113366327792
0.113366376948
0.113366425594
0.11336647606
0.113366526699
0.113366579203
0.113366633246
0.113366689561
0.113366746097
0.11336680157
0.113366853182
0.113366900671
0.113366944347
0.11336698426
0.113367022658
0.113367059804
0.113367097101
0.113367134557
0.11336717172
0.113367209076
0.11336724543
0.113367280319
0.113367313856
0.11336734581
0.113367379519
0.113367414207
0.113367448436
0.113367484904
0.113367522806
0.113367562331
0.113367607739
0.113367655132
0.113367705991
0.113367756763
0.113367801774
0.113367840053
0.113367873173
0.113367901091
0.113367923558
0.113367939224
0.113367948209
0.113367961467
0.11336797597
0.113367983783
0.113367989988
0.113368002916
0.113368030506
0.113368070723
0.113368116599
0.113368165189
0.113368215006
0.113368264584
0.113368313595
0.113368364038
0.11336841793
0.113368478079
0.113368544824
0.113368617565
0.113368689009
0.113368756959
0.11336882799
0.11336890216
0.113368963619
0.113369021694
0.113369064778
0.11336909698
0.113369121403
0.113369137064
0.113369147067
0.113369157587
0.113369175714
0.113369186668
0.113369199772
0.113369206436
0.113369213623
0.113369238622
0.11336928092
0.113369322221
0.113369358153
0.113369390348
0.113369419999
0.113369448807
0.113369478238
0.113369508603
0.113369539829
0.113369571344
0.113369602822
0.113369633911
0.113369664789
0.113369696392
0.113369728623
0.11336976142
0.1133697954
0.113369829571
0.113369864291
0.11336990005
0.113369936306
0.11336997207
0.113370006481
0.113370040045
0.113370073148
0.113370106857
0.113370141072
0.113370176702
0.11337021419
0.113370252138
0.113370289574
0.113370327769
0.113370366321
0.113370404542
0.113370442265
0.113370480214
0.113370518856
0.113370558086
0.113370597578
0.11337063814
0.113370679293
0.113370721303
0.113370764842
0.113370809545
0.113370857235
0.113370907232
0.113370959807
0.113371014854
0.113371070501
0.113371124747
0.113371175697
0.113371222588
0.113371267584
0.11337131139
0.113371353681
0.113371396342
0.113371437499
0.113371478325
0.113371519363
0.113371559609
0.113371597461
0.113371632872
0.113371668955
0.11337170362
0.113371735426
0.113371765965
0.113371795574
0.113371825044
0.113371852777
0.113371874818
0.113371890278
0.113371901238
0.113371907618
0.1133719171
0.113371938433
0.113371966828
0.11337200506
0.113372058907
0.113372106524
0.113372137696
0.113372154429
0.113372162585
0.113372174045
0.113372187777
0.113372194699
0.113372203566
0.113372220149
0.113372236564
0.113372245854
0.113372250966
0.113372266063
0.113372299534
0.113372336848
0.113372368768
0.113372396044
0.113372419816
0.113372442358
0.113372466312
0.113372491252
0.113372516361
0.11337254156
0.113372567024
0.113372593013
0.113372619562
0.113372646706
0.1133726745
0.113372703066
0.113372732492
0.113372762904
0.113372794396
0.113372827101
0.113372861171
0.113372896736
0.113372933746
0.113372972086
0.113373011308
0.113373051039
0.113373091059
0.113373131172
0.113373171392
0.113373211548