/*--------------------------------*- C++ -*----------------------------------*\
  =========                 |
  \\      /  F ield         | OpenFOAM: The Open Source CFD Toolbox
   \\    /   O peration     | Website:  https://openfoam.org
    \\  /    A nd           | Version:  6
     \\/     M anipulation  |
\*---------------------------------------------------------------------------*/
FoamFile
{
    version     2.0;
    format      ascii;
    class       volScalarField;
    location    "0.0005";
    object      H2O2;
}
// * * * * * * * * * * * * * * * * * * * * * * * * * * * * * * * * * * * * * //

dimensions      [0 0 0 0 0 0 0];

internalField   nonuniform List<scalar> 
32000
(
6.33552386405e-07
6.33552550107e-07
6.33551666864e-07
6.33550443735e-07
6.33548733331e-07
6.33547424095e-07
6.33545489412e-07
6.33543336722e-07
6.33540770795e-07
6.33538673853e-07
6.33535685475e-07
6.33533792723e-07
6.33530708466e-07
6.33527937718e-07
6.33523900012e-07
6.33519931438e-07
6.33517243743e-07
6.33513075136e-07
6.33508970429e-07
6.33505925227e-07
6.33501055247e-07
6.3349517281e-07
6.33491581655e-07
6.33488333229e-07
6.33483511272e-07
6.33478007741e-07
6.33473582093e-07
6.33467061573e-07
6.33460360695e-07
6.33454893912e-07
6.33451263128e-07
6.33446174979e-07
6.33439403938e-07
6.33433762399e-07
6.3342605386e-07
6.33420474491e-07
6.33415367598e-07
6.33405443706e-07
6.33397474828e-07
6.33393064369e-07
6.33387647858e-07
6.33380347144e-07
6.33374280538e-07
6.3336529826e-07
6.33357487494e-07
6.33349952385e-07
6.33343856661e-07
6.33336459665e-07
6.33324992679e-07
6.33317495923e-07
6.33311939578e-07
6.33303705154e-07
6.33295420149e-07
6.33287988488e-07
6.33280549092e-07
6.33273977757e-07
6.33259551304e-07
6.33249407423e-07
6.33239861252e-07
6.33231095831e-07
6.33224941388e-07
6.33215052553e-07
6.33200609125e-07
6.33192487207e-07
6.33187505536e-07
6.33180022064e-07
6.33171430265e-07
6.33153552676e-07
6.33143531976e-07
6.33132013027e-07
6.33123166346e-07
6.33112837854e-07
6.33104844588e-07
6.33098987116e-07
6.33088930253e-07
6.33077169614e-07
6.33067342309e-07
6.33049923423e-07
6.33039621252e-07
6.3302957999e-07
6.33021262882e-07
6.3300866848e-07
6.33000679639e-07
6.32991602798e-07
6.3297430201e-07
6.32964790582e-07
6.32952437673e-07
6.3294417592e-07
6.32936739249e-07
6.3292760818e-07
6.32908782628e-07
6.32887477046e-07
6.32874046806e-07
6.32862108382e-07
6.32854117933e-07
6.32847844709e-07
6.32839973175e-07
6.32829280264e-07
6.3281460878e-07
6.32789196531e-07
6.3277443481e-07
6.3276748188e-07
6.32759011117e-07
6.3274842325e-07
6.32740950489e-07
6.32724262154e-07
6.32697537743e-07
6.32682542916e-07
6.32673124743e-07
6.32666917527e-07
6.32656636576e-07
6.32638915172e-07
6.32618392123e-07
6.32607897873e-07
6.32600382961e-07
6.32594284844e-07
6.32576151938e-07
6.32544722585e-07
6.32524241178e-07
6.32512448884e-07
6.32501361665e-07
6.32491563861e-07
6.32480268258e-07
6.32470299001e-07
6.32445171382e-07
6.32423271474e-07
6.32401005239e-07
6.3237628649e-07
6.32356132964e-07
6.32342508923e-07
6.32333363171e-07
6.32321530902e-07
6.32309846188e-07
6.32298749036e-07
6.32278239578e-07
6.32249446216e-07
6.32238079173e-07
6.32231100984e-07
6.32214193893e-07
6.32197413898e-07
6.32167090368e-07
6.32140972163e-07
6.32119054992e-07
6.32106841893e-07
6.32097317332e-07
6.32085021044e-07
6.32072695849e-07
6.32050621082e-07
6.32032491904e-07
6.3200781192e-07
6.31991125149e-07
6.31981401597e-07
6.31960755805e-07
6.3194788091e-07
6.31935344424e-07
6.31927260048e-07
6.31909528356e-07
6.31873650189e-07
6.3184261872e-07
6.31816352241e-07
6.31796478997e-07
6.31781026852e-07
6.31764903858e-07
6.31749474051e-07
6.3173528352e-07
6.3172087362e-07
6.31703545483e-07
6.31680113421e-07
6.31660407534e-07
6.31646976641e-07
6.31633722412e-07
6.31614108652e-07
6.3158928061e-07
6.3156080424e-07
6.31534592841e-07
6.31511003379e-07
6.31490103431e-07
6.31472784869e-07
6.31454747515e-07
6.31432084536e-07
6.31409774059e-07
6.31393330423e-07
6.31380648875e-07
6.31368768306e-07
6.31337036463e-07
6.3131241971e-07
6.31294875151e-07
6.31283603537e-07
6.31273445984e-07
6.31247734236e-07
6.31210712569e-07
6.31189040736e-07
6.31178734129e-07
6.31160365501e-07
6.31128393027e-07
6.31104583095e-07
6.31091542319e-07
6.31083786707e-07
6.31065645108e-07
6.31039794511e-07
6.31008661801e-07
6.30979975031e-07
6.30954844608e-07
6.30935436809e-07
6.30918293617e-07
6.30899617248e-07
6.30876769741e-07
6.30849970884e-07
6.30820663014e-07
6.30793938526e-07
6.30773410436e-07
6.30756106178e-07
6.30742286211e-07
6.3073001165e-07
6.30710973473e-07
6.30685970042e-07
6.30657746958e-07
6.30628178219e-07
6.30600723616e-07
6.30572840775e-07
6.30549143958e-07
6.30531407817e-07
6.30503610632e-07
6.30487982983e-07
6.30472390601e-07
6.3045361542e-07
6.30431301318e-07
6.30403651564e-07
6.30375937008e-07
6.30349034692e-07
6.30327594097e-07
6.30309887718e-07
6.30299271814e-07
6.30286629434e-07
6.30251008255e-07
6.30220491211e-07
6.30202311361e-07
6.30196205791e-07
6.30175606319e-07
6.30141548197e-07
6.30109780872e-07
6.30083029981e-07
6.30058688135e-07
6.30035054252e-07
6.30010763883e-07
6.29985577757e-07
6.29961601833e-07
6.29939159104e-07
6.29916265113e-07
6.29892289269e-07
6.29866015099e-07
6.29837647321e-07
6.29804336266e-07
6.29771178448e-07
6.29743627156e-07
6.29724721058e-07
6.29711531079e-07
6.29698471752e-07
6.29685191623e-07
6.29670752061e-07
6.29634389174e-07
6.29614049536e-07
6.29594527217e-07
6.29579288023e-07
6.29558759724e-07
6.29521005452e-07
6.29486107841e-07
6.29455007559e-07
6.29427173139e-07
6.29400874342e-07
6.29373862683e-07
6.29346157079e-07
6.29321132681e-07
6.29299897584e-07
6.29278818991e-07
6.29262764946e-07
6.29245494227e-07
6.29226197337e-07
6.29206190497e-07
6.291790827e-07
6.29152602688e-07
6.29122258929e-07
6.29093569824e-07
6.29063232791e-07
6.2903503326e-07
6.29009625855e-07
6.28986122745e-07
6.28963715555e-07
6.28939911671e-07
6.28915199038e-07
6.28888227622e-07
6.28860820911e-07
6.28831585986e-07
6.28806324378e-07
6.28784953477e-07
6.28762852712e-07
6.28740915455e-07
6.28716441283e-07
6.28685884562e-07
6.28652197474e-07
6.28619269117e-07
6.28595368905e-07
6.28576994856e-07
6.28561075094e-07
6.28545393699e-07
6.28527610044e-07
6.28506003154e-07
6.28478531453e-07
6.28445574395e-07
6.28408998152e-07
6.28374178138e-07
6.28343888382e-07
6.2831804368e-07
6.28294779939e-07
6.28273195958e-07
6.28249001797e-07
6.28224907271e-07
6.2820015073e-07
6.28168059726e-07
6.28139405939e-07
6.28112231577e-07
6.28086280627e-07
6.28060851386e-07
6.28034218173e-07
6.28005089622e-07
6.27971980441e-07
6.27935627963e-07
6.27899148979e-07
6.27868021381e-07
6.27843203824e-07
6.27823227967e-07
6.2780762935e-07
6.27794811637e-07
6.2778029103e-07
6.27763124438e-07
6.2774244345e-07
6.2771829848e-07
6.27690694647e-07
6.27659984901e-07
6.27626828899e-07
6.27592652427e-07
6.27556578691e-07
6.27522390498e-07
6.2749323642e-07
6.27469381002e-07
6.27449303623e-07
6.27431784207e-07
6.27414100745e-07
6.2739345956e-07
6.27366883573e-07
6.27336835613e-07
6.27304890903e-07
6.27273933278e-07
6.27244445731e-07
6.27215252763e-07
6.27185014607e-07
6.27152874517e-07
6.27119366226e-07
6.270860656e-07
6.2705226407e-07
6.27020086847e-07
6.26992228851e-07
6.26967098476e-07
6.26946275359e-07
6.2693282675e-07
6.26918703548e-07
6.26903001335e-07
6.2685925749e-07
6.26825335056e-07
6.2680626779e-07
6.26795284049e-07
6.26771250623e-07
6.26734723906e-07
6.26699814184e-07
6.26664529042e-07
6.26630353354e-07
6.26596846946e-07
6.265641094e-07
6.26531298329e-07
6.26500026221e-07
6.26474301108e-07
6.26455215025e-07
6.26437960651e-07
6.26417432411e-07
6.26392823175e-07
6.26363881456e-07
6.263325192e-07
6.26302781135e-07
6.26275506085e-07
6.26248333945e-07
6.26222211279e-07
6.26195586785e-07
6.26165659292e-07
6.26134074153e-07
6.26101519676e-07
6.26069568564e-07
6.26039482266e-07
6.26008710533e-07
6.25978120436e-07
6.2594893619e-07
6.25921423341e-07
6.25894815956e-07
6.25868665642e-07
6.25841928421e-07
6.25814733903e-07
6.25784013213e-07
6.25754539462e-07
6.25725920124e-07
6.25698682558e-07
6.25672541742e-07
6.25646162416e-07
6.25617798763e-07
6.25585507997e-07
6.25549622181e-07
6.25513028054e-07
6.25480512642e-07
6.25454053826e-07
6.2543102222e-07
6.25411913692e-07
6.25391736282e-07
6.25364327677e-07
6.25336065718e-07
6.25306481073e-07
6.25276168434e-07
6.25246224222e-07
6.25217029158e-07
6.25188221031e-07
6.25161495952e-07
6.25130360971e-07
6.25090775506e-07
6.25060822382e-07
6.25034301324e-07
6.25007904172e-07
6.24981256439e-07
6.2495486222e-07
6.24929027659e-07
6.24903272854e-07
6.24876265216e-07
6.2484689928e-07
6.24816845582e-07
6.24784222499e-07
6.24744397328e-07
6.24698807352e-07
6.24651666983e-07
6.24607251206e-07
6.24572703964e-07
6.24549462421e-07
6.24534539115e-07
6.24518480049e-07
6.24505284902e-07
6.24486225896e-07
6.24461941952e-07
6.24427331195e-07
6.24389359789e-07
6.24351454266e-07
6.24318365682e-07
6.24296931866e-07
6.24279149958e-07
6.24247695388e-07
6.24195900408e-07
6.24147129118e-07
6.241206263e-07
6.2410159777e-07
6.24082893151e-07
6.24058952879e-07
6.24022776848e-07
6.24006530923e-07
6.23989601177e-07
6.23966175555e-07
6.23939667137e-07
6.23908229681e-07
6.23873305961e-07
6.23837841881e-07
6.23801298749e-07
6.23759780673e-07
6.23715660424e-07
6.23674597175e-07
6.23641397512e-07
6.23615851193e-07
6.23594483399e-07
6.23572537741e-07
6.23549559618e-07
6.23524642679e-07
6.23496335527e-07
6.23468382869e-07
6.23439296682e-07
6.23406338951e-07
6.23371034394e-07
6.23334929385e-07
6.23302302324e-07
6.23271632606e-07
6.23226589661e-07
6.23200482334e-07
6.23169094315e-07
6.23152642212e-07
6.23125378751e-07
6.23101782763e-07
6.23064980724e-07
6.2303796003e-07
6.22997293675e-07
6.229778279e-07
6.22943875267e-07
6.22919790351e-07
6.22890896226e-07
6.22857527195e-07
6.22827648499e-07
6.22790486179e-07
6.22751229369e-07
6.22711261677e-07
6.22670942063e-07
6.2263433224e-07
6.22601429899e-07
6.22573618377e-07
6.22549731857e-07
6.22521122282e-07
6.22474597149e-07
6.22453839876e-07
6.2241776952e-07
6.22382980832e-07
6.22358652507e-07
6.2233456817e-07
6.22306122404e-07
6.22274313691e-07
6.22243208764e-07
6.22213701281e-07
6.22188649742e-07
6.22171113193e-07
6.22160111572e-07
6.22129962209e-07
6.22078132313e-07
6.22026544671e-07
6.21982129699e-07
6.21948328418e-07
6.21928731058e-07
6.21914497162e-07
6.21897412417e-07
6.21870553085e-07
6.21847226659e-07
6.21803263953e-07
6.2176862927e-07
6.21737135899e-07
6.21703050341e-07
6.21663922332e-07
6.21627798723e-07
6.21589199123e-07
6.21551224045e-07
6.21517691039e-07
6.21487392083e-07
6.21471552065e-07
6.2143381831e-07
6.21405237056e-07
6.21369435438e-07
6.21334333365e-07
6.21303118113e-07
6.21269352234e-07
6.21230880087e-07
6.21194800141e-07
6.2116242722e-07
6.21131553069e-07
6.21104591953e-07
6.210802031e-07
6.21058945102e-07
6.2103678413e-07
6.2100633941e-07
6.20971321699e-07
6.20947347428e-07
6.20923747716e-07
6.20886176335e-07
6.20843376458e-07
6.20789002712e-07
6.20736574642e-07
6.20704691895e-07
6.20683708783e-07
6.20658369556e-07
6.2063898627e-07
6.20609067887e-07
6.2058414392e-07
6.20536396766e-07
6.20493719533e-07
6.20462663399e-07
6.20434735746e-07
6.20404577961e-07
6.20373275367e-07
6.20342724812e-07
6.20318683768e-07
6.20295967683e-07
6.20267006849e-07
6.20231293453e-07
6.20189563642e-07
6.20144629189e-07
6.20105331668e-07
6.2007885874e-07
6.2005974808e-07
6.20034573361e-07
6.20002426562e-07
6.19979578754e-07
6.19936792692e-07
6.19893609647e-07
6.19852292763e-07
6.19817513199e-07
6.19787484933e-07
6.19756378367e-07
6.19720108288e-07
6.19676772394e-07
6.19633168982e-07
6.19600601436e-07
6.19582064507e-07
6.1957137478e-07
6.19550048612e-07
6.19518391314e-07
6.19487853588e-07
6.19463139327e-07
6.19436901098e-07
6.19383802888e-07
6.19331349385e-07
6.19286897464e-07
6.1924726831e-07
6.19217728198e-07
6.19191643941e-07
6.1916265396e-07
6.19140039927e-07
6.19117729391e-07
6.19088350984e-07
6.1903642039e-07
6.18991146279e-07
6.18956737582e-07
6.18923835368e-07
6.18891642623e-07
6.18856220681e-07
6.18819887517e-07
6.1878481387e-07
6.18750878523e-07
6.18719607883e-07
6.18693921572e-07
6.18670897326e-07
6.18646531529e-07
6.18622096281e-07
6.185959718e-07
6.18563819766e-07
6.18527361474e-07
6.18491489997e-07
6.18458597278e-07
6.18426195247e-07
6.18393216345e-07
6.18358673315e-07
6.18322382437e-07
6.18285696658e-07
6.18248363884e-07
6.18210648222e-07
6.1817439686e-07
6.18142608959e-07
6.18115116893e-07
6.18088369312e-07
6.18059962546e-07
6.18028554144e-07
6.17994025043e-07
6.17956367331e-07
6.17918465297e-07
6.17881074367e-07
6.1784314272e-07
6.17807621423e-07
6.17774983981e-07
6.17743950832e-07
6.1771106972e-07
6.17677690783e-07
6.17643520768e-07
6.1760835839e-07
6.17570545958e-07
6.17531071172e-07
6.1748980036e-07
6.17452665808e-07
6.17420177332e-07
6.1739450002e-07
6.17373920183e-07
6.17353864837e-07
6.17327509999e-07
6.17292634732e-07
6.17256774101e-07
6.17222564583e-07
6.17195397327e-07
6.17168360641e-07
6.17136527004e-07
6.17094580989e-07
6.17051867978e-07
6.17015932684e-07
6.16993916341e-07
6.16971731116e-07
6.16953272743e-07
6.16927918945e-07
6.16889970622e-07
6.16829451242e-07
6.16771572331e-07
6.167287237e-07
6.16697602745e-07
6.16668839758e-07
6.16637190795e-07
6.16604641372e-07
6.16570707185e-07
6.16537589348e-07
6.16508377384e-07
6.16477183561e-07
6.16444475886e-07
6.16410073168e-07
6.16375902586e-07
6.163403685e-07
6.16305657922e-07
6.16272441678e-07
6.16239120957e-07
6.16207645755e-07
6.16177539e-07
6.1614695306e-07
6.1611468646e-07
6.1608099779e-07
6.16045693583e-07
6.16009748636e-07
6.15973884043e-07
6.15939405335e-07
6.15906759219e-07
6.15875752211e-07
6.15845351023e-07
6.15815074744e-07
6.15784027598e-07
6.15755668629e-07
6.1572685904e-07
6.15697653647e-07
6.15665872758e-07
6.15629311452e-07
6.15590636058e-07
6.15552357858e-07
6.15516325487e-07
6.1548104885e-07
6.15446625767e-07
6.15410987646e-07
6.15374599919e-07
6.15338823843e-07
6.15304488761e-07
6.15271292116e-07
6.15239036786e-07
6.15208474813e-07
6.1517757995e-07
6.15144436727e-07
6.15111833702e-07
6.15081290376e-07
6.15048446658e-07
6.15014457514e-07
6.14977792691e-07
6.14943894288e-07
6.14911216966e-07
6.14881081534e-07
6.14852758854e-07
6.14824385389e-07
6.14794260502e-07
6.14762389804e-07
6.14727859471e-07
6.14690989989e-07
6.14653237723e-07
6.1461487673e-07
6.14577400641e-07
6.1454190948e-07
6.14509181189e-07
6.1447792521e-07
6.14447721339e-07
6.14419074576e-07
6.1438781092e-07
6.14356033945e-07
6.14324405031e-07
6.14292802944e-07
6.14260994274e-07
6.14227978619e-07
6.14195626532e-07
6.14163533617e-07
6.14133871288e-07
6.14101080057e-07
6.14065448492e-07
6.14026815025e-07
6.13987356334e-07
6.13949619138e-07
6.13915483724e-07
6.13884440963e-07
6.13854764721e-07
6.13824808883e-07
6.13794612407e-07
6.13764082004e-07
6.13732482172e-07
6.13700562129e-07
6.13667120167e-07
6.13632725265e-07
6.13598265856e-07
6.13564028134e-07
6.13531216031e-07
6.13501886976e-07
6.13473444559e-07
6.13445638245e-07
6.13418237832e-07
6.13390616106e-07
6.13361429182e-07
6.13330575976e-07
6.13298386685e-07
6.13265483139e-07
6.13232470037e-07
6.13199610745e-07
6.13166764376e-07
6.13133255472e-07
6.13098546976e-07
6.13062686646e-07
6.13025653092e-07
6.12988108357e-07
6.12950869947e-07
6.12914955451e-07
6.12881221352e-07
6.12850236338e-07
6.12821318937e-07
6.12793620065e-07
6.12766169976e-07
6.12738070997e-07
6.12708889346e-07
6.1267813483e-07
6.12647816439e-07
6.12618344331e-07
6.12590285444e-07
6.12563305001e-07
6.12534583606e-07
6.12504115112e-07
6.1247356871e-07
6.12444262376e-07
6.12416984397e-07
6.12392317562e-07
6.12368556757e-07
6.12344060062e-07
6.12318016291e-07
6.12289134988e-07
6.12257169309e-07
6.12221897938e-07
6.1218256107e-07
6.12140944798e-07
6.12101387527e-07
6.12065767625e-07
6.12032821535e-07
6.12000348351e-07
6.11967105555e-07
6.11933123639e-07
6.11898885014e-07
6.11865105827e-07
6.11831815496e-07
6.11797815703e-07
6.11761853234e-07
6.11726570668e-07
6.11693410109e-07
6.11662888012e-07
6.11634453493e-07
6.11607126029e-07
6.11579724539e-07
6.11551488332e-07
6.11521968983e-07
6.11491054925e-07
6.11459216132e-07
6.11427851626e-07
6.11398769418e-07
6.11372681004e-07
6.11349454076e-07
6.11326344933e-07
6.11301735239e-07
6.11275492144e-07
6.11245689444e-07
6.112121524e-07
6.11174192094e-07
6.11136270655e-07
6.1110039721e-07
6.11068481409e-07
6.11039235789e-07
6.1101382901e-07
6.10995928484e-07
6.10984042478e-07
6.10975295726e-07
6.10961704455e-07
6.10938089317e-07
6.10896853965e-07
6.10849047388e-07
6.10795904567e-07
6.10747125141e-07
6.10705899336e-07
6.10675900921e-07
6.10652410639e-07
6.10636718036e-07
6.10625707337e-07
6.10619758591e-07
6.10605353939e-07
6.10583781708e-07
6.10552722314e-07
6.10513903209e-07
6.1047535373e-07
6.10436994929e-07
6.10400605228e-07
6.10367838219e-07
6.10337514691e-07
6.10308261122e-07
6.10279088507e-07
6.10249520398e-07
6.10219535944e-07
6.10189221208e-07
6.10158978878e-07
6.1012933334e-07
6.10100698303e-07
6.10073237735e-07
6.10046967564e-07
6.1002206919e-07
6.09999233096e-07
6.09978634732e-07
6.09959473622e-07
6.09940983092e-07
6.09922317297e-07
6.09904000053e-07
6.09884968866e-07
6.09864334012e-07
6.09841630327e-07
6.09816359263e-07
6.09788413186e-07
6.09757722748e-07
6.09725141851e-07
6.09692182496e-07
6.09659109746e-07
6.09626202975e-07
6.09593290213e-07
6.09560517408e-07
6.09527967023e-07
6.0949599211e-07
6.09464905089e-07
6.09434441664e-07
6.09404938779e-07
6.09378460396e-07
6.09354379236e-07
6.09331130271e-07
6.09308553775e-07
6.09285563115e-07
6.0926148053e-07
6.09237048981e-07
6.09211031404e-07
6.09184823177e-07
6.0915903924e-07
6.09133765765e-07
6.09109606442e-07
6.09087049001e-07
6.0906751758e-07
6.09049855875e-07
6.09031666976e-07
6.09012288035e-07
6.08990995891e-07
6.08967381852e-07
6.08941400422e-07
6.08913656782e-07
6.0888492365e-07
6.08855829801e-07
6.08826829318e-07
6.08798371773e-07
6.08770499011e-07
6.08743461531e-07
6.08717068482e-07
6.08691230297e-07
6.08665913658e-07
6.0864116202e-07
6.08617106829e-07
6.08593890349e-07
6.08571647346e-07
6.08550376095e-07
6.08529956991e-07
6.08510184036e-07
6.08490962531e-07
6.08472207932e-07
6.08453588703e-07
6.08434599529e-07
6.08415030527e-07
6.0839516828e-07
6.08375028565e-07
6.08354512926e-07
6.08333109057e-07
6.08310777617e-07
6.08287052113e-07
6.08260927878e-07
6.08232947164e-07
6.08207444203e-07
6.08187074044e-07
6.08172093321e-07
6.08160133005e-07
6.08127389196e-07
6.08110511332e-07
6.08094959991e-07
6.08068772117e-07
6.08040005757e-07
6.08004294774e-07
6.07967806733e-07
6.07940228476e-07
6.07925397434e-07
6.07915618255e-07
6.07886022035e-07
6.07857119773e-07
6.07846635003e-07
6.0782992726e-07
6.07796007453e-07
6.0777309095e-07
6.07757495372e-07
6.07739695969e-07
6.0771430241e-07
6.07698205064e-07
6.07677995557e-07
6.07659013205e-07
6.07641527261e-07
6.07622130502e-07
6.07602141626e-07
6.07582760953e-07
6.07561688077e-07
6.07541178169e-07
6.07519974832e-07
6.07499977144e-07
6.07480698841e-07
6.07462695723e-07
6.07445581866e-07
6.0742948789e-07
6.0741417426e-07
6.07399402199e-07
6.07384841512e-07
6.07370258984e-07
6.07355535959e-07
6.07340590815e-07
6.07325514312e-07
6.07310612505e-07
6.07296562892e-07
6.07283183886e-07
6.07270717424e-07
6.07258836881e-07
6.07247304447e-07
6.0723496946e-07
6.07222254762e-07
6.07208849811e-07
6.07194774802e-07
6.07179992008e-07
6.07164727054e-07
6.07148407579e-07
6.07132879287e-07
6.07115349155e-07
6.07097416215e-07
6.07079763665e-07
6.07060861306e-07
6.07042416251e-07
6.07026084964e-07
6.07008525673e-07
6.06991543916e-07
6.06974184855e-07
6.06957353917e-07
6.06940668316e-07
6.06923857055e-07
6.06906407815e-07
6.06890258956e-07
6.06874824017e-07
6.0685867185e-07
6.06842514506e-07
6.06825468458e-07
6.06808120584e-07
6.06790888216e-07
6.06772373758e-07
6.06754258318e-07
6.06736121821e-07
6.06718174265e-07
6.06700523663e-07
6.0668331149e-07
6.06666577622e-07
6.06650316776e-07
6.06634570785e-07
6.06619216063e-07
6.06604358105e-07
6.06590381868e-07
6.06577713156e-07
6.06566543857e-07
6.06556838702e-07
6.06548408324e-07
6.06541001491e-07
6.065343442e-07
6.06528134374e-07
6.06522082722e-07
6.06515951273e-07
6.06509668705e-07
6.06503276117e-07
6.06496838359e-07
6.06490443321e-07
6.0648415141e-07
6.06477875649e-07
6.06471467549e-07
6.06464775311e-07
6.06457738929e-07
6.06450339755e-07
6.06442598395e-07
6.06434538194e-07
6.06426091909e-07
6.06418066726e-07
6.06410542976e-07
6.06400786683e-07
6.0639164987e-07
6.06382112148e-07
6.06372617488e-07
6.06363054334e-07
6.06353650532e-07
6.06344317791e-07
6.06335346106e-07
6.06326954342e-07
6.06319232397e-07
6.06311989387e-07
6.06304841721e-07
6.06297759203e-07
6.06291205809e-07
6.06285308283e-07
6.06279714082e-07
6.06274650184e-07
6.0627054583e-07
6.06266712482e-07
6.06263448638e-07
6.06260791709e-07
6.06258772998e-07
6.06257247643e-07
6.06256054907e-07
6.06255073202e-07
6.0625419516e-07
6.06253327545e-07
6.06252395823e-07
6.06251287884e-07
6.06249898078e-07
6.06248289397e-07
6.06246102042e-07
6.0624330531e-07
6.06239874982e-07
6.06235789724e-07
6.06231186193e-07
6.06226184406e-07
6.06220967989e-07
6.06215513161e-07
6.06209690738e-07
6.06203262116e-07
6.06196272064e-07
6.06188726725e-07
6.06180665507e-07
6.06172280925e-07
6.06163987703e-07
6.0615597153e-07
6.06148409363e-07
6.06141449725e-07
6.06135238534e-07
6.06129859332e-07
6.0612532393e-07
6.06121606387e-07
6.06118677574e-07
6.06116504903e-07
6.06115035223e-07
6.06114180111e-07
6.06113803462e-07
6.06113719269e-07
6.06113771699e-07
6.06114078357e-07
6.06114803754e-07
6.0611602304e-07
6.06117778154e-07
6.0612005946e-07
6.06122986011e-07
6.06126884013e-07
6.06131814246e-07
6.0613806663e-07
6.0614566224e-07
6.06154610041e-07
6.06164834174e-07
6.06176357515e-07
6.06189068102e-07
6.06202409428e-07
6.06214512753e-07
6.06227228544e-07
6.06239836141e-07
6.06252165707e-07
6.0626357692e-07
6.06273840154e-07
6.06282907495e-07
6.06290822303e-07
6.06297859202e-07
6.06304306913e-07
6.06310431784e-07
6.0631649105e-07
6.06322669337e-07
6.06329045496e-07
6.06335615465e-07
6.06342425591e-07
6.06349321435e-07
6.06356142317e-07
6.06363048729e-07
6.06369562132e-07
6.06375720127e-07
6.06381669361e-07
6.06387066303e-07
6.06392041589e-07
6.06396687925e-07
6.06401075258e-07
6.06404977804e-07
6.06408645529e-07
6.06412287102e-07
6.0641559778e-07
6.06418814879e-07
6.06421601454e-07
6.06424593122e-07
6.06427707926e-07
6.06430623182e-07
6.06433877305e-07
6.06437166404e-07
6.06441026178e-07
6.06445534483e-07
6.06450779683e-07
6.06456938735e-07
6.06464134827e-07
6.06472400016e-07
6.06481622132e-07
6.0649182879e-07
6.06503154927e-07
6.0651603063e-07
6.06528986425e-07
6.06544169055e-07
6.0656236143e-07
6.06583848377e-07
6.06608618845e-07
6.0663589163e-07
6.06665805546e-07
6.06697556009e-07
6.06729964939e-07
6.06758730595e-07
6.06786550738e-07
6.06811892836e-07
6.06834356175e-07
6.06854359608e-07
6.0687236308e-07
6.068888944e-07
6.06904807046e-07
6.06920692217e-07
6.06936751445e-07
6.06953209591e-07
6.06970242746e-07
6.06987954235e-07
6.07006554379e-07
6.07026129966e-07
6.07046572951e-07
6.07067591859e-07
6.07088802103e-07
6.07109851878e-07
6.07130476148e-07
6.07150607186e-07
6.07170605532e-07
6.07190951897e-07
6.07209417133e-07
6.07228907232e-07
6.07248498995e-07
6.07267995944e-07
6.0728746362e-07
6.07306994259e-07
6.07327005022e-07
6.07347616974e-07
6.07369243899e-07
6.07392249765e-07
6.07417099118e-07
6.07444369357e-07
6.0747457036e-07
6.07507992933e-07
6.07545312063e-07
6.07582599777e-07
6.0761999994e-07
6.0766118058e-07
6.07701592214e-07
6.07739970346e-07
6.07775648943e-07
6.07808734309e-07
6.07838769935e-07
6.07867002396e-07
6.07894140448e-07
6.07920594866e-07
6.07946948965e-07
6.07973862641e-07
6.08001197688e-07
6.0802787365e-07
6.08055375874e-07
6.08082704405e-07
6.08109049464e-07
6.08134470646e-07
6.08155726399e-07
6.08173763014e-07
6.08185643542e-07
6.08193851919e-07
6.08199932812e-07
6.08215113008e-07
6.08240286382e-07
6.08267525397e-07
6.08293556684e-07
6.08323136008e-07
6.08355048754e-07
6.08386027626e-07
6.08423429673e-07
6.0846707761e-07
6.08517631465e-07
6.08574272706e-07
6.08634426203e-07
6.08695378165e-07
6.08751127441e-07
6.08799794532e-07
6.08841921004e-07
6.08875078809e-07
6.08904731653e-07
6.0892772808e-07
6.08944002157e-07
6.08951974417e-07
6.08969907696e-07
6.08998678575e-07
6.09038354038e-07
6.09080607983e-07
6.09125841481e-07
6.09162861489e-07
6.09199703056e-07
6.09236821462e-07
6.09272479368e-07
6.09307214856e-07
6.09341611731e-07
6.09375266889e-07
6.0940771207e-07
6.09438820675e-07
6.0946902921e-07
6.09499155229e-07
6.09529942282e-07
6.09562506058e-07
6.09597602865e-07
6.09636064732e-07
6.09678618364e-07
6.09726121162e-07
6.09779362434e-07
6.09838535019e-07
6.09902974622e-07
6.09970658682e-07
6.10038360365e-07
6.10102675766e-07
6.10160744805e-07
6.10211370864e-07
6.1025796482e-07
6.10303264848e-07
6.103482268e-07
6.10395727748e-07
6.10446905457e-07
6.1050249812e-07
6.10560660248e-07
6.10620418014e-07
6.10678690269e-07
6.10734025608e-07
6.10784764919e-07
6.10831823843e-07
6.10876890357e-07
6.10920291714e-07
6.10963238299e-07
6.11006098501e-07
6.11049035355e-07
6.11092346531e-07
6.11135861612e-07
6.11180354201e-07
6.11226323187e-07
6.11275345172e-07
6.11327175012e-07
6.11383418266e-07
6.11441641869e-07
6.11508245583e-07
6.11576430411e-07
6.11646814458e-07
6.11717333992e-07
6.1178725798e-07
6.11855619615e-07
6.11921754413e-07
6.11985288644e-07
6.12046792596e-07
6.12107002171e-07
6.12166665841e-07
6.1222672418e-07
6.12287453904e-07
6.12349167564e-07
6.12411708144e-07
6.12474659483e-07
6.1253738924e-07
6.12599799827e-07
6.12665342653e-07
6.1272748019e-07
6.12784838219e-07
6.12847525263e-07
6.1291139055e-07
6.12978080809e-07
6.13046545742e-07
6.1311634581e-07
6.13185841368e-07
6.1325206227e-07
6.13313849319e-07
6.13371809757e-07
6.13427131188e-07
6.13483018124e-07
6.13542062194e-07
6.13606582531e-07
6.13673119681e-07
6.13735531611e-07
6.13801766897e-07
6.13865630411e-07
6.13927433628e-07
6.13988422314e-07
6.14048755482e-07
6.14110054414e-07
6.14172285682e-07
6.14234832484e-07
6.14299868047e-07
6.14365932541e-07
6.14435504654e-07
6.14506704731e-07
6.14580510599e-07
6.14657454483e-07
6.14739046686e-07
6.14822645476e-07
6.14908287455e-07
6.14994158006e-07
6.15079005351e-07
6.15159333737e-07
6.15234562423e-07
6.15304907407e-07
6.1537200903e-07
6.15442459754e-07
6.15514146654e-07
6.15589268315e-07
6.15661664255e-07
6.1573063983e-07
6.15787860463e-07
6.15842706043e-07
6.15894307916e-07
6.15945129366e-07
6.15993557313e-07
6.16044908604e-07
6.16102803854e-07
6.1616585545e-07
6.16233576048e-07
6.16304505087e-07
6.16377656786e-07
6.16452957286e-07
6.16529735332e-07
6.16607513319e-07
6.16684934556e-07
6.1675990287e-07
6.16831784444e-07
6.16901043414e-07
6.16960578161e-07
6.17012922463e-07
6.17063892192e-07
6.17114380524e-07
6.1716441795e-07
6.17213942241e-07
6.17264444697e-07
6.17316570913e-07
6.17371425704e-07
6.17429946947e-07
6.17492835862e-07
6.17561382339e-07
6.17636273613e-07
6.17717249424e-07
6.17803522318e-07
6.17894695198e-07
6.17990282523e-07
6.18088755507e-07
6.18188614636e-07
6.18286676737e-07
6.18378332099e-07
6.18477392197e-07
6.18576836243e-07
6.18673003112e-07
6.18766450562e-07
6.18855510038e-07
6.18939971971e-07
6.19026465858e-07
6.19114689746e-07
6.19205873989e-07
6.1929420864e-07
6.19378601602e-07
6.19456836862e-07
6.19518883619e-07
6.19554268356e-07
6.19589639972e-07
6.19689619739e-07
6.19773693727e-07
6.19807662467e-07
6.19853140326e-07
6.19934525302e-07
6.20033479425e-07
6.2014497459e-07
6.2025748286e-07
6.2035327421e-07
6.20411300858e-07
6.20450123508e-07
6.20490674739e-07
6.2058594297e-07
6.20629122325e-07
6.20674301671e-07
6.2077237383e-07
6.20862705555e-07
6.20924349362e-07
6.20973530448e-07
6.21041861756e-07
6.21117790668e-07
6.21180321574e-07
6.21267457734e-07
6.21364568118e-07
6.21477045811e-07
6.21600997224e-07
6.21728810811e-07
6.21852585826e-07
6.21973203259e-07
6.22090055583e-07
6.22200840346e-07
6.22299990267e-07
6.22392212996e-07
6.22476075017e-07
6.22557581202e-07
6.22634313417e-07
6.22704736737e-07
6.22772031722e-07
6.22826330308e-07
6.22878371721e-07
6.22931411442e-07
6.22979990151e-07
6.23035464158e-07
6.23082302352e-07
6.23132061207e-07
6.23180415683e-07
6.23249447155e-07
6.23335935722e-07
6.23438565003e-07
6.23555197044e-07
6.23671495692e-07
6.23764367656e-07
6.23842573349e-07
6.23911006985e-07
6.23976879336e-07
6.2404850797e-07
6.24129745174e-07
6.24214486182e-07
6.24293893743e-07
6.24364124293e-07
6.24430368653e-07
6.24501823509e-07
6.245863521e-07
6.24686033708e-07
6.24794629668e-07
6.24910054739e-07
6.25030835362e-07
6.25151228959e-07
6.25263380332e-07
6.25369280351e-07
6.25461658235e-07
6.25560815463e-07
6.25657517339e-07
6.25742078205e-07
6.25817602841e-07
6.25893608332e-07
6.25976842284e-07
6.26063554877e-07
6.26155789102e-07
6.26249670792e-07
6.26344277888e-07
6.26441705521e-07
6.26543193763e-07
6.26644447896e-07
6.26743590097e-07
6.26842343255e-07
6.26949680972e-07
6.2705600165e-07
6.27165904083e-07
6.27284538312e-07
6.27401767638e-07
6.2751278383e-07
6.2761930273e-07
6.27718422705e-07
6.27815453052e-07
6.27911774356e-07
6.28010534826e-07
6.2811169977e-07
6.28217319099e-07
6.28323486889e-07
6.28433093779e-07
6.28538821902e-07
6.28642652695e-07
6.28744816723e-07
6.28827987278e-07
6.28923053003e-07
6.29017799773e-07
6.29114109823e-07
6.2921125479e-07
6.29308041562e-07
6.29403541032e-07
6.29497311865e-07
6.29589728046e-07
6.29681650112e-07
6.29774921626e-07
6.29870284108e-07
6.29967637541e-07
6.30066954048e-07
6.30167744351e-07
6.30269814302e-07
6.30373441653e-07
6.30479513108e-07
6.30586877007e-07
6.30694951018e-07
6.30803098062e-07
6.30910815441e-07
6.31018057248e-07
6.31124626183e-07
6.3123024675e-07
6.31335251669e-07
6.3144110051e-07
6.31548512308e-07
6.3165672804e-07
6.3176514977e-07
6.31874605763e-07
6.31985466226e-07
6.32098196684e-07
6.32213096057e-07
6.32330069097e-07
6.32448021416e-07
6.3256593025e-07
6.32683806532e-07
6.32800258573e-07
6.32915557258e-07
6.3302940956e-07
6.33141696448e-07
6.33253456724e-07
6.33368582325e-07
6.33484805742e-07
6.33603966548e-07
6.33727560199e-07
6.33854731243e-07
6.33987622105e-07
6.34124565192e-07
6.34260672041e-07
6.34393928677e-07
6.34521863846e-07