/*--------------------------------*- C++ -*----------------------------------*\
  =========                 |
  \\      /  F ield         | OpenFOAM: The Open Source CFD Toolbox
   \\    /   O peration     | Website:  https://openfoam.org
    \\  /    A nd           | Version:  6
     \\/     M anipulation  |
\*---------------------------------------------------------------------------*/
FoamFile
{
    version     2.0;
    format      ascii;
    class       volScalarField;
    location    "0.0005";
    object      HO2;
}
// * * * * * * * * * * * * * * * * * * * * * * * * * * * * * * * * * * * * * //

dimensions      [0 0 0 0 0 0 0];

internalField   nonuniform List<scalar> 
32000
(
3.74397275461e-07
3.74394038123e-07
3.74394342284e-07
3.74393846865e-07
3.74393847505e-07
3.74392672893e-07
3.74392177397e-07
3.74391305649e-07
3.74390743171e-07
3.74389348878e-07
3.74388821107e-07
3.74386999328e-07
3.74385294995e-07
3.74384034642e-07
3.74383641617e-07
3.74382075294e-07
3.74380169208e-07
3.74378579636e-07
3.74377294172e-07
3.7437453507e-07
3.7437327958e-07
3.74372639285e-07
3.74369769598e-07
3.74366633474e-07
3.74364490868e-07
3.74362276432e-07
3.74359844318e-07
3.74358083459e-07
3.74357054951e-07
3.74353410461e-07
3.74349784083e-07
3.7434667333e-07
3.74343846231e-07
3.74340895236e-07
3.74338879567e-07
3.74335451125e-07
3.7433192533e-07
3.74329872086e-07
3.74328484493e-07
3.74324532721e-07
3.74319008653e-07
3.7431463855e-07
3.74311416545e-07
3.74307816511e-07
3.74304640429e-07
3.74299878853e-07
3.74294986802e-07
3.74291842748e-07
3.7428919452e-07
3.74285735263e-07
3.74281192675e-07
3.74276485104e-07
3.74272217124e-07
3.74265377608e-07
3.74260319375e-07
3.74257206315e-07
3.74253107548e-07
3.742511251e-07
3.74246603891e-07
3.74239481817e-07
3.74233956811e-07
3.74230356123e-07
3.74227328638e-07
3.74222675905e-07
3.74215702837e-07
3.7420767083e-07
3.74203945851e-07
3.74199753515e-07
3.74197377672e-07
3.74191590645e-07
3.74184891185e-07
3.74177799161e-07
3.74172200775e-07
3.74166272921e-07
3.7415831676e-07
3.7415184479e-07
3.74147681264e-07
3.7414327969e-07
3.7413867132e-07
3.74130022179e-07
3.74123599152e-07
3.74116789903e-07
3.74110632109e-07
3.74104921404e-07
3.7409908775e-07
3.74095388773e-07
3.74086896722e-07
3.7407827017e-07
3.74070324035e-07
3.74065079417e-07
3.74059152906e-07
3.74055011007e-07
3.74051551866e-07
3.74044633693e-07
3.74034683166e-07
3.74024530927e-07
3.74017159181e-07
3.7401079836e-07
3.74005937747e-07
3.74002943354e-07
3.73999469156e-07
3.73992073447e-07
3.73982326765e-07
3.73973086203e-07
3.73966779218e-07
3.73960994847e-07
3.73958210515e-07
3.73953982578e-07
3.73946478909e-07
3.73938314821e-07
3.73932068424e-07
3.73928521769e-07
3.73927345777e-07
3.73922163442e-07
3.7391732509e-07
3.73913327742e-07
3.73913131167e-07
3.73919175294e-07
3.73923663923e-07
3.73924990287e-07
3.73925237295e-07
3.73925698573e-07
3.73927537461e-07
3.7392982175e-07
3.73936701541e-07
3.73942899923e-07
3.73948683561e-07
3.73955237193e-07
3.73960750583e-07
3.73963882097e-07
3.73965449166e-07
3.73967274943e-07
3.73969109027e-07
3.73971165512e-07
3.73975919656e-07
3.73983172935e-07
3.73985717676e-07
3.73986529812e-07
3.73989041281e-07
3.73991882903e-07
3.73998769248e-07
3.74005462528e-07
3.74010642569e-07
3.74012435901e-07
3.74013616562e-07
3.74015472852e-07
3.74017994122e-07
3.74023152283e-07
3.74027634282e-07
3.74033909988e-07
3.74038124908e-07
3.7404007294e-07
3.74044468677e-07
3.74047292397e-07
3.74049376556e-07
3.74050483403e-07
3.74053946667e-07
3.74063121465e-07
3.7407175952e-07
3.74078357267e-07
3.74082682149e-07
3.74085563248e-07
3.74089063784e-07
3.74092530685e-07
3.74095540493e-07
3.74098646731e-07
3.74102815217e-07
3.74109242719e-07
3.74114667916e-07
3.74117700388e-07
3.74120288753e-07
3.74125420347e-07
3.74132257221e-07
3.74139968382e-07
3.74146463046e-07
3.74151638449e-07
3.74155815174e-07
3.74159234705e-07
3.74163244955e-07
3.74169105082e-07
3.74175162194e-07
3.74179589079e-07
3.74183035207e-07
3.74186445724e-07
3.74196254104e-07
3.74204072625e-07
3.74209459448e-07
3.74212797239e-07
3.74215809435e-07
3.74223943395e-07
3.74236033728e-07
3.74242985895e-07
3.74246092132e-07
3.74251631835e-07
3.7426151923e-07
3.74268807996e-07
3.7427258508e-07
3.74274716729e-07
3.74279782719e-07
3.74287075158e-07
3.74295815804e-07
3.74303572113e-07
3.74310246407e-07
3.74315324898e-07
3.74319973352e-07
3.74325291587e-07
3.74331947338e-07
3.74339831187e-07
3.74348456115e-07
3.74356295908e-07
3.74362371107e-07
3.74367672384e-07
3.74372136044e-07
3.74376177271e-07
3.74382159636e-07
3.74389592546e-07
3.74397381029e-07
3.74404929783e-07
3.74411261741e-07
3.74417555733e-07
3.74422715716e-07
3.74426635378e-07
3.74432918348e-07
3.74436866369e-07
3.74440974514e-07
3.74446263114e-07
3.74452782614e-07
3.74460748827e-07
3.74468630901e-07
3.74476213391e-07
3.74482353472e-07
3.74487562129e-07
3.74490740004e-07
3.74494462883e-07
3.74504757221e-07
3.74513423952e-07
3.74518541552e-07
3.74520277055e-07
3.74526080399e-07
3.74535366023e-07
3.74543640061e-07
3.74550220779e-07
3.74556022206e-07
3.74561712913e-07
3.74567507734e-07
3.7457348817e-07
3.74579080079e-07
3.7458416967e-07
3.74589438361e-07
3.74595158827e-07
3.74601640019e-07
3.74608587248e-07
3.74616517056e-07
3.74624245441e-07
3.74630851189e-07
3.74635856792e-07
3.74639787989e-07
3.74643625291e-07
3.74647259614e-07
3.74650909847e-07
3.74659696459e-07
3.74664497458e-07
3.7466908974e-07
3.74672847185e-07
3.74677824984e-07
3.74686459689e-07
3.74693995842e-07
3.74700457516e-07
3.74706202237e-07
3.74711853819e-07
3.74717985288e-07
3.74724629583e-07
3.74730866143e-07
3.74736327079e-07
3.74741824942e-07
3.74746077566e-07
3.74750629906e-07
3.74755647882e-07
3.74760705008e-07
3.74767331529e-07
3.74773332529e-07
3.74779854644e-07
3.74785322012e-07
3.74790822397e-07
3.74795713534e-07
3.74800031389e-07
3.74804257535e-07
3.74808380261e-07
3.7481286506e-07
3.74817303569e-07
3.74821835791e-07
3.74826222396e-07
3.7483086284e-07
3.74834915605e-07
3.74838661298e-07
3.74842902459e-07
3.74847254211e-07
3.74851991524e-07
3.74857650626e-07
3.74863654862e-07
3.74869518518e-07
3.74874011205e-07
3.74877954853e-07
3.74881894284e-07
3.74886112997e-07
3.74891003015e-07
3.74896644167e-07
3.74903129838e-07
3.74910019218e-07
3.74917136276e-07
3.7492326016e-07
3.74928640614e-07
3.74933435656e-07
3.74938071893e-07
3.74942649098e-07
3.74947911237e-07
3.74952665925e-07
3.74957371891e-07
3.74962984658e-07
3.74967746765e-07
3.74971992605e-07
3.74976257497e-07
3.74980489591e-07
3.74984944245e-07
3.74989801001e-07
3.74995085192e-07
3.75000531919e-07
3.75005569354e-07
3.75009775143e-07
3.7501325581e-07
3.75016332251e-07
3.75019214838e-07
3.75021848797e-07
3.75024857706e-07
3.75028371246e-07
3.75032217597e-07
3.75036130636e-07
3.75039988434e-07
3.75043835293e-07
3.75047294305e-07
3.75050590205e-07
3.75053664339e-07
3.75056512851e-07
3.75059145885e-07
3.7506160274e-07
3.75064323498e-07
3.75067309621e-07
3.75070462626e-07
3.75074141821e-07
3.7507859034e-07
3.7508322431e-07
3.75087828808e-07
3.75092052067e-07
3.75095835366e-07
3.7509939293e-07
3.75102835497e-07
3.75106258278e-07
3.75109728168e-07
3.75113455237e-07
3.75117689561e-07
3.75122166698e-07
3.75126387322e-07
3.75130466147e-07
3.7513411566e-07
3.75136671051e-07
3.75139320871e-07
3.75142080751e-07
3.75149253834e-07
3.75154573215e-07
3.75157535278e-07
3.75159426327e-07
3.7516349842e-07
3.75169386084e-07
3.751746685e-07
3.75179380293e-07
3.75183208913e-07
3.7518620461e-07
3.75188488446e-07
3.75190285648e-07
3.7519177411e-07
3.75193020629e-07
3.75194262165e-07
3.75195723578e-07
3.75197757859e-07
3.75200261912e-07
3.75203154131e-07
3.75206128847e-07
3.75208974447e-07
3.75211781765e-07
3.75214968269e-07
3.75218285016e-07
3.75221895419e-07
3.75226074985e-07
3.75230563264e-07
3.75235150819e-07
3.75239571376e-07
3.75243536931e-07
3.75247298278e-07
3.7525069765e-07
3.75253659065e-07
3.75256155878e-07
3.75258346397e-07
3.75260271527e-07
3.75261984511e-07
3.75263546788e-07
3.75265165969e-07
3.75266669337e-07
3.7526811662e-07
3.75269601201e-07
3.75271115006e-07
3.75272784694e-07
3.75274680614e-07
3.75276828413e-07
3.75279252834e-07
3.7528181565e-07
3.75284281919e-07
3.75286602916e-07
3.75289011002e-07
3.75291356791e-07
3.75293903428e-07
3.75297046456e-07
3.75299820495e-07
3.75302112481e-07
3.75303842272e-07
3.75305027648e-07
3.75305749993e-07
3.75306142987e-07
3.75306317393e-07
3.7530636532e-07
3.75306386757e-07
3.75306677256e-07
3.75307586727e-07
3.75309186361e-07
3.75311348389e-07
3.75313864851e-07
3.753166177e-07
3.75319658799e-07
3.75323099457e-07
3.75326972049e-07
3.75330847808e-07
3.7533474702e-07
3.75339014703e-07
3.75343299843e-07
3.75347169832e-07
3.75350613423e-07
3.75353394297e-07
3.75355704466e-07
3.75357649241e-07
3.75360182435e-07
3.75362370033e-07
3.75365071253e-07
3.7536752676e-07
3.75370093713e-07
3.75371732229e-07
3.75372657989e-07
3.75373052938e-07
3.75373146903e-07
3.75373103841e-07
3.75372665192e-07
3.75371332575e-07
3.75369668143e-07
3.75368759224e-07
3.75368473299e-07
3.75368402698e-07
3.75368402979e-07
3.75368615465e-07
3.75369552826e-07
3.75371330845e-07
3.75374113044e-07
3.75376606112e-07
3.75378648724e-07
3.75380290774e-07
3.75381468327e-07
3.75382239445e-07
3.7538274516e-07
3.75383139188e-07
3.7538351407e-07
3.75384019989e-07
3.75384916855e-07
3.7538624049e-07
3.75388092237e-07
3.7539046395e-07
3.75393049126e-07
3.75395627095e-07
3.75397682907e-07
3.75399205509e-07
3.75400319165e-07
3.75401042447e-07
3.75401427423e-07
3.75401547211e-07
3.75401536956e-07
3.75401414742e-07
3.75401348847e-07
3.75401350675e-07
3.75401484749e-07
3.75401583737e-07
3.75401583565e-07
3.75401497233e-07
3.75401448306e-07
3.75401524354e-07
3.75402098469e-07
3.75403227345e-07
3.75404626395e-07
3.75406166949e-07
3.75407464817e-07
3.75408419252e-07
3.75409162994e-07
3.75409821669e-07
3.75410491978e-07
3.75411240647e-07
3.75412106985e-07
3.75412725644e-07
3.75413088305e-07
3.75413233054e-07
3.75413234118e-07
3.75413047984e-07
3.75413057136e-07
3.754132487e-07
3.75413633223e-07
3.75414444668e-07
3.75416007132e-07
3.75417584144e-07
3.75418779036e-07
3.75419685482e-07
3.75420193475e-07
3.75420486939e-07
3.75420606413e-07
3.75420596738e-07
3.75420104082e-07
3.75418452773e-07
3.75415743207e-07
3.75412847544e-07
3.75411014234e-07
3.75410230046e-07
3.75410008099e-07
3.75409954831e-07
3.75409908011e-07
3.75409897962e-07
3.75410028077e-07
3.75410494125e-07
3.75411573044e-07
3.75413632254e-07
3.75416137907e-07
3.75417706202e-07
3.75418469528e-07
3.75418779591e-07
3.75418877972e-07
3.75418921173e-07
3.75418958278e-07
3.7541886394e-07
3.75418621844e-07
3.75418062564e-07
3.75417300161e-07
3.7541632485e-07
3.75414920846e-07
3.75413119063e-07
3.75411232448e-07
3.75409374879e-07
3.75407792814e-07
3.75406552738e-07
3.75405706767e-07
3.75405199399e-07
3.75404900177e-07
3.75404662518e-07
3.75404451251e-07
3.75404362658e-07
3.75404358174e-07
3.75404341854e-07
3.75404288216e-07
3.75404294166e-07
3.7540454135e-07
3.75405069218e-07
3.75405348411e-07
3.75405422228e-07
3.75405444154e-07
3.75405410068e-07
3.75405164711e-07
3.7540418877e-07
3.75402893172e-07
3.75401735465e-07
3.75400748637e-07
3.75399640544e-07
3.7539810501e-07
3.75396436972e-07
3.75395172725e-07
3.75394294166e-07
3.75393548009e-07
3.75392792955e-07
3.75391969945e-07
3.75391197776e-07
3.75390687191e-07
3.75390504048e-07
3.7539048536e-07
3.7539048189e-07
3.75390428299e-07
3.75390310447e-07
3.75389702457e-07
3.75388396236e-07
3.75386567483e-07
3.75385055787e-07
3.75383641768e-07
3.7538237273e-07
3.75380984541e-07
3.75379107349e-07
3.75377080247e-07
3.7537565889e-07
3.75375117269e-07
3.7537508541e-07
3.75375189534e-07
3.75375268716e-07
3.75375331719e-07
3.75375442754e-07
3.75375501788e-07
3.75375517634e-07
3.75375709503e-07
3.75376392083e-07
3.75377382111e-07
3.75378015526e-07
3.75378332955e-07
3.75378439762e-07
3.75378452359e-07
3.7537840153e-07
3.75378109598e-07
3.75377200739e-07
3.75375944857e-07
3.75374470787e-07
3.75372978382e-07
3.75371106303e-07
3.75368712405e-07
3.75365836075e-07
3.75362403463e-07
3.75358800956e-07
3.75355314556e-07
3.75352269603e-07
3.75349666684e-07
3.75347310069e-07
3.75345278675e-07
3.75343372245e-07
3.75341261287e-07
3.75338897247e-07
3.75336657149e-07
3.75334808387e-07
3.7533327661e-07
3.75331932231e-07
3.75330660547e-07
3.75329373841e-07
3.75328007548e-07
3.75326444393e-07
3.75324649561e-07
3.75322765859e-07
3.75321035523e-07
3.75319627134e-07
3.75318442146e-07
3.75317317894e-07
3.75316046032e-07
3.7531441463e-07
3.75312282942e-07
3.75309761427e-07
3.75306927074e-07
3.75303848777e-07
3.75300916937e-07
3.75298341862e-07
3.75295996019e-07
3.75293518381e-07
3.75290841973e-07
3.75287813662e-07
3.75284340709e-07
3.75280287632e-07
3.75275857083e-07
3.75271391985e-07
3.75267779649e-07
3.7526516906e-07
3.75263637429e-07
3.75262776552e-07
3.75262252051e-07
3.75261781862e-07
3.75261196694e-07
3.75260520306e-07
3.75259827372e-07
3.75259327166e-07
3.75258949427e-07
3.75258598572e-07
3.75258110341e-07
3.75257632106e-07
3.75257308566e-07
3.752572382e-07
3.75257282381e-07
3.75257304325e-07
3.75256990631e-07
3.75255669894e-07
3.75252857573e-07
3.75249613926e-07
3.75246923103e-07
3.75245175857e-07
3.75243966952e-07
3.75242918528e-07
3.75241773452e-07
3.75240388495e-07
3.75238712828e-07
3.75236574664e-07
3.75233828399e-07
3.75230312125e-07
3.75226216237e-07
3.75221815067e-07
3.7521716462e-07
3.75212591641e-07
3.75208306382e-07
3.75204214212e-07
3.7520052131e-07
3.75197278342e-07
3.75194253889e-07
3.75191234086e-07
3.751880804e-07
3.75184528955e-07
3.75180542536e-07
3.75176168739e-07
3.75171578103e-07
3.75166995158e-07
3.75162508484e-07
3.75158141901e-07
3.75154019894e-07
3.7515016146e-07
3.75147113007e-07
3.7514443564e-07
3.75142139102e-07
3.75140021054e-07
3.75137945394e-07
3.7513583875e-07
3.75133744382e-07
3.75131845878e-07
3.75130213812e-07
3.75128742521e-07
3.75127349068e-07
3.75125962557e-07
3.75124561691e-07
3.7512313529e-07
3.75121642137e-07
3.75120034583e-07
3.7511827483e-07
3.75116176027e-07
3.75113535148e-07
3.75110493747e-07
3.75107134241e-07
3.75103114677e-07
3.7509847344e-07
3.75093175038e-07
3.75087769937e-07
3.75082529145e-07
3.75077830215e-07
3.75073658395e-07
3.75069850733e-07
3.75066219448e-07
3.75062600181e-07
3.75058886734e-07
3.75054993297e-07
3.75050937487e-07
3.75046815767e-07
3.75042760259e-07
3.75038952995e-07
3.75035514045e-07
3.7503237692e-07
3.7502944897e-07
3.75026776079e-07
3.75023863965e-07
3.75020801291e-07
3.75017599641e-07
3.75014202738e-07
3.75010584317e-07
3.75006710122e-07
3.75002869904e-07
3.74999167518e-07
3.74995926535e-07
3.7499253115e-07
3.74988999343e-07
3.74985246235e-07
3.74981402252e-07
3.74977673833e-07
3.74974306184e-07
3.7497133319e-07
3.7496861079e-07
3.74965947844e-07
3.74963225919e-07
3.74960284306e-07
3.74956885113e-07
3.74952898926e-07
3.74948003431e-07
3.7494214191e-07
3.7493558139e-07
3.74928581495e-07
3.74921665456e-07
3.74915536258e-07
3.74909940015e-07
3.74904944471e-07
3.74900586034e-07
3.74896777853e-07
3.74893250018e-07
3.74889913225e-07
3.74886766268e-07
3.74883822462e-07
3.74881070753e-07
3.74878493018e-07
3.74876020036e-07
3.74873509814e-07
3.74870800422e-07
3.74867751478e-07
3.74864259193e-07
3.74860276273e-07
3.74855895117e-07
3.7485127042e-07
3.74846628949e-07
3.74842158288e-07
3.74837806742e-07
3.74833397099e-07
3.74828633862e-07
3.74823144963e-07
3.74816596882e-07
3.74808692866e-07
3.74799883847e-07
3.74790557961e-07
3.7478128689e-07
3.74772453506e-07
3.74763557944e-07
3.74754889637e-07
3.74747202179e-07
3.74740799662e-07
3.7473575236e-07
3.7473206182e-07
3.74729284077e-07
3.74727028256e-07
3.7472504232e-07
3.74723122849e-07
3.74721101082e-07
3.74718836259e-07
3.7471623767e-07
3.74713442726e-07
3.74710797237e-07
3.74708523692e-07
3.7470660267e-07
3.74704884695e-07
3.74703231609e-07
3.74701529683e-07
3.74699683603e-07
3.74697631576e-07
3.74695320253e-07
3.74692626908e-07
3.74689468438e-07
3.7468604045e-07
3.74682508432e-07
3.74678927015e-07
3.7467521338e-07
3.74671016406e-07
3.74665981097e-07
3.74659724686e-07
3.74651979134e-07
3.74642560696e-07
3.7463169046e-07
3.74620016704e-07
3.74608689356e-07
3.74598569491e-07
3.74590149637e-07
3.74582718241e-07
3.74575990841e-07
3.7457011797e-07
3.74564612417e-07
3.74559286203e-07
3.7455372937e-07
3.74548843153e-07
3.74544693024e-07
3.74541283468e-07
3.74538299057e-07
3.74536037252e-07
3.74534601041e-07
3.74533735557e-07
3.74533026431e-07
3.74531580304e-07
3.74528197171e-07
3.74521293108e-07
3.74511787755e-07
3.74500232711e-07
3.74488525096e-07
3.74478326691e-07
3.74471419171e-07
3.74466769139e-07
3.74464234986e-07
3.74463064973e-07
3.74462674323e-07
3.74461733526e-07
3.74460181549e-07
3.74457616491e-07
3.74454003253e-07
3.744500863e-07
3.74446062363e-07
3.74442095688e-07
3.74438456277e-07
3.74435096354e-07
3.74431703145e-07
3.74427881788e-07
3.74423269007e-07
3.74417566531e-07
3.74410550678e-07
3.74402136233e-07
3.74392414515e-07
3.74381553226e-07
3.7436973189e-07
3.74357088935e-07
3.74344021555e-07
3.74331508693e-07
3.74320329813e-07
3.74310668022e-07
3.74302487363e-07
3.74295485884e-07
3.74289814015e-07
3.74284934738e-07
3.74280499736e-07
3.7427640742e-07
3.74272596241e-07
3.74268771971e-07
3.74264866026e-07
3.74260787146e-07
3.7425682955e-07
3.74252935035e-07
3.74249166787e-07
3.74245528754e-07
3.74241958341e-07
3.74238413634e-07
3.74234801322e-07
3.74231051969e-07
3.74227105773e-07
3.74222916049e-07
3.74218804822e-07
3.74214717441e-07
3.74210366893e-07
3.74205649191e-07
3.74200226914e-07
3.74193798675e-07
3.74186383762e-07
3.74177610555e-07
3.74167838004e-07
3.74157248801e-07
3.74146194869e-07
3.74135260227e-07
3.74125135081e-07
3.74116725453e-07
3.74109900281e-07
3.74103841255e-07
3.74098438837e-07
3.74093383272e-07
3.74088476589e-07
3.7408357802e-07
3.74078674476e-07
3.74073815258e-07
3.74069058669e-07
3.74064442332e-07
3.74059994445e-07
3.74055658828e-07
3.74051372485e-07
3.74046955059e-07
3.74042228296e-07
3.7403704014e-07
3.74031264409e-07
3.7402482539e-07
3.74017714051e-07
3.74009950092e-07
3.74001578366e-07
3.73992614069e-07
3.73983101703e-07
3.73973168818e-07
3.73963041617e-07
3.73952867904e-07
3.73942711683e-07
3.73932739602e-07
3.73923337143e-07
3.73914698718e-07
3.73906891592e-07
3.73899686516e-07
3.73893129347e-07
3.73887035186e-07
3.73881127253e-07
3.7387547163e-07
3.73870803063e-07
3.7386730063e-07
3.73864769029e-07
3.73862747175e-07
3.73857190971e-07
3.73854313959e-07
3.73851646762e-07
3.7384714505e-07
3.73842130182e-07
3.73835569526e-07
3.73828454308e-07
3.73822832724e-07
3.73819715092e-07
3.73817616113e-07
3.73811003397e-07
3.73804408032e-07
3.73801961744e-07
3.73797776466e-07
3.73788808257e-07
3.73782297061e-07
3.73777150281e-07
3.73770738467e-07
3.73761497033e-07
3.73754962144e-07
3.73746433102e-07
3.73738662643e-07
3.73731698794e-07
3.73724147284e-07
3.7371728014e-07
3.73710874202e-07
3.73704508548e-07
3.73698477525e-07
3.73692380929e-07
3.73686399786e-07
3.73680376453e-07
3.73674160865e-07
3.73667597117e-07
3.73660458446e-07
3.73652621417e-07
3.73643814547e-07
3.73633902037e-07
3.7362281937e-07
3.73610584736e-07
3.7359726867e-07
3.73583197854e-07
3.73568970855e-07
3.73555541844e-07
3.73543132184e-07
3.73532151643e-07
3.73522396701e-07
3.7351372864e-07
3.73505197288e-07
3.73497229503e-07
3.73489559112e-07
3.73482233694e-07
3.73475195315e-07
3.73468648003e-07
3.73462325265e-07
3.7345678547e-07
3.73450805946e-07
3.73445151937e-07
3.7343995632e-07
3.73434376264e-07
3.734289176e-07
3.73424072382e-07
3.73418670015e-07
3.73413220907e-07
3.7340746806e-07
3.73401735776e-07
3.73395833948e-07
3.73389784987e-07
3.73383417502e-07
3.73377604964e-07
3.73372163153e-07
3.73366711302e-07
3.73361496964e-07
3.73356260164e-07
3.73351187887e-07
3.73346381503e-07
3.73341319682e-07
3.73336460233e-07
3.73331724872e-07
3.73327021031e-07
3.73322332884e-07
3.73317633507e-07
3.73312860885e-07
3.73307856295e-07
3.73302524404e-07
3.73296640616e-07
3.73290130781e-07
3.73283060458e-07
3.73275625517e-07
3.73267991827e-07
3.7326023184e-07
3.73252306309e-07
3.73244101527e-07
3.73235263337e-07
3.73225616877e-07
3.73214829234e-07
3.73202743934e-07
3.73189499807e-07
3.73175578575e-07
3.73161580544e-07
3.73148177669e-07
3.73135858163e-07
3.73124763707e-07
3.73114716267e-07
3.73105434732e-07
3.73096696746e-07
3.7308832886e-07
3.73080206489e-07
3.73072189354e-07
3.73064059686e-07
3.73056495992e-07
3.73049528293e-07
3.73040577433e-07
3.73032310867e-07
3.730238053e-07
3.7301547339e-07
3.73007217974e-07
3.72999237143e-07
3.7299138803e-07
3.72983810482e-07
3.72976592418e-07
3.72969683079e-07
3.72962759193e-07
3.729552823e-07
3.72947030422e-07
3.72938337356e-07
3.72929194814e-07
3.72919382146e-07
3.72909295454e-07
3.72899999543e-07
3.72890188699e-07
3.72880516251e-07
3.72871175301e-07
3.72862403147e-07
3.7285395896e-07
3.72845327343e-07
3.72836009242e-07
3.72825758743e-07
3.72814470349e-07
3.72802660262e-07
3.72790846478e-07
3.72779548469e-07
3.7276990052e-07
3.7276023188e-07
3.72751025611e-07
3.72742396929e-07
3.72734259034e-07
3.72726758615e-07
3.72719858497e-07
3.72713813325e-07
3.72708448078e-07
3.72703557542e-07
3.72698919293e-07
3.72694334051e-07
3.72689784246e-07
3.72685185616e-07
3.72680495413e-07
3.72675743748e-07
3.7267094953e-07
3.72666117849e-07
3.72661266278e-07
3.72656377029e-07
3.72651479616e-07
3.72646569336e-07
3.72641700777e-07
3.72636964413e-07
3.72632508017e-07
3.72628522021e-07
3.72625244193e-07
3.7262282466e-07
3.72621066564e-07
3.72618312332e-07
3.72611956461e-07
3.72602483528e-07
3.72592058292e-07
3.72581644412e-07
3.72571223118e-07
3.72561005036e-07
3.72550690673e-07
3.72539766244e-07
3.72527711106e-07
3.72514322365e-07
3.72499601421e-07
3.72483727928e-07
3.72466740802e-07
3.72448894902e-07
3.72431001299e-07
3.72415337261e-07
3.72399289598e-07
3.72383627541e-07
3.72368401833e-07
3.72354263204e-07
3.72341402934e-07
3.72329856004e-07
3.72319629225e-07
3.72310461015e-07
3.7230208591e-07
3.72294270082e-07
3.72286771657e-07
3.72279436727e-07
3.72272212245e-07
3.72265098699e-07
3.7225801732e-07
3.72251089088e-07
3.72244415772e-07
3.72237739716e-07
3.72231515577e-07
3.72225645351e-07
3.72219946297e-07
3.72214751074e-07
3.72209917752e-07
3.72205361977e-07
3.7220101655e-07
3.72197126385e-07
3.7219346303e-07
3.72189825405e-07
3.72186532367e-07
3.72183338452e-07
3.72180586788e-07
3.72177602036e-07
3.72174479807e-07
3.72171563784e-07
3.72168360498e-07
3.72165237123e-07
3.72161707968e-07
3.72157786874e-07
3.72153388057e-07
3.72148441218e-07
3.72142830212e-07
3.72136536735e-07
3.72129626799e-07
3.7212214975e-07
3.72114042431e-07
3.72105005485e-07
3.72096043798e-07
3.72085621322e-07
3.72073178231e-07
3.72058513633e-07
3.72041637967e-07
3.72023105191e-07
3.72002852328e-07
3.71981464851e-07
3.71959788279e-07
3.71940720207e-07
3.71922488019e-07
3.71906148702e-07
3.71891984043e-07
3.71879721701e-07
3.71869050257e-07
3.71859609772e-07
3.71850870316e-07
3.71842436374e-07
3.71834168358e-07
3.71825942561e-07
3.71817728077e-07
3.71809515135e-07
3.71801212483e-07
3.71792796207e-07
3.71784318313e-07
3.71775862239e-07
3.71767581984e-07
3.71759601897e-07
3.71752019222e-07
3.71744851569e-07
3.71737953469e-07
3.71731111871e-07
3.71724995747e-07
3.7171858254e-07
3.71712124115e-07
3.71705629954e-07
3.71699043005e-07
3.71692304715e-07
3.71685238729e-07
3.71677768282e-07
3.71669708299e-07
3.71660879199e-07
3.71651062435e-07
3.71640002185e-07
3.71627478057e-07
3.71613372111e-07
3.7159743494e-07
3.71581423199e-07
3.7156536207e-07
3.71547772738e-07
3.71530731684e-07
3.71514901931e-07
3.71500663012e-07
3.71488041583e-07
3.71477231565e-07
3.71467745745e-07
3.71459291526e-07
3.71451658263e-07
3.71444573312e-07
3.71437784123e-07
3.71431258839e-07
3.71425198005e-07
3.71419149052e-07
3.71413369487e-07
3.71407976577e-07
3.71403007551e-07
3.71399084515e-07
3.71395957312e-07
3.71394083323e-07
3.71392917341e-07
3.71392056116e-07
3.71389626875e-07
3.71385133825e-07
3.71379829743e-07
3.71374396762e-07
3.71367791581e-07
3.7136012377e-07
3.71352213678e-07
3.71342160292e-07
3.71329932399e-07
3.71315428055e-07
3.71298906949e-07
3.71281294201e-07
3.7126350781e-07
3.71247464807e-07
3.71233813511e-07
3.71222542334e-07
3.71214256358e-07
3.71207460389e-07
3.71202682478e-07
3.71199591856e-07
3.71198142584e-07
3.71194993221e-07
3.711901637e-07
3.71183567786e-07
3.71176437364e-07
3.71168870698e-07
3.71162884712e-07
3.71157174601e-07
3.71151655584e-07
3.71146590033e-07
3.71141913252e-07
3.71137433784e-07
3.71133120943e-07
3.71129009679e-07
3.71124934572e-07
3.71120794336e-07
3.71116368915e-07
3.71111475347e-07
3.71105819891e-07
3.71099182761e-07
3.71091299681e-07
3.71081940738e-07
3.71070846241e-07
3.71057797523e-07
3.71042750569e-07
3.71025921448e-07
3.71007962207e-07
3.7098989178e-07
3.70972798723e-07
3.70957613314e-07
3.70944797332e-07
3.70933557576e-07
3.7092328307e-07
3.70913820919e-07
3.70904438434e-07
3.70894872898e-07
3.70884882115e-07
3.70874760993e-07
3.70864633802e-07
3.70854999118e-07
3.70846220231e-07
3.70838516204e-07
3.70831724337e-07
3.70825556818e-07
3.70819854336e-07
3.7081434173e-07
3.70808867068e-07
3.70803280178e-07
3.70797484579e-07
3.70791420845e-07
3.70784941254e-07
3.70777942918e-07
3.70770091786e-07
3.70761367827e-07
3.70751467502e-07
3.70740735864e-07
3.7072811086e-07
3.70714739499e-07
3.7070067548e-07
3.70686359797e-07
3.70672067975e-07
3.70658159021e-07
3.70644866874e-07
3.70632364318e-07
3.70620643721e-07
3.70609617935e-07
3.70599114664e-07
3.70588973613e-07
3.70579069754e-07
3.70569308049e-07
3.70559655993e-07
3.70550133579e-07
3.70540787287e-07
3.70531624739e-07
3.70522136858e-07
3.70513353458e-07
3.7050546307e-07
3.70497038087e-07
3.70488713181e-07
3.7048020335e-07
3.7047161321e-07
3.70463016063e-07
3.70454592994e-07
3.70446689468e-07
3.70439465398e-07
3.70432829316e-07
3.70426619662e-07
3.70420415329e-07
3.70413880522e-07
3.70406679951e-07
3.7039914035e-07
3.70391913804e-07
3.70384054287e-07
3.70376228396e-07
3.70368381168e-07
3.70360345239e-07
3.70352091237e-07
3.70343408155e-07
3.70334305918e-07
3.70324885558e-07
3.70314814091e-07
3.70304303028e-07
3.70292962643e-07
3.70281055265e-07
3.70268378781e-07
3.7025484502e-07
3.70240225969e-07
3.70224943721e-07
3.70209107438e-07
3.70193077978e-07
3.70177212751e-07
3.70162285765e-07
3.70148525359e-07
3.7013602237e-07
3.70124574822e-07
3.70113045844e-07
3.70101878083e-07
3.70090675559e-07
3.70080488503e-07
3.70071331104e-07
3.70064259909e-07
3.70058050592e-07
3.7005278854e-07
3.70048115608e-07
3.700440224e-07
3.70039945851e-07
3.70035524385e-07
3.70030812199e-07
3.70025808912e-07
3.70020591803e-07
3.70015273381e-07
3.70009911802e-07
3.700046009e-07
3.69999385815e-07
3.69994360786e-07
3.69989646621e-07
3.69985276656e-07
3.69981203111e-07
3.69977799436e-07
3.69974880893e-07
3.69972078194e-07
3.69969282989e-07
3.6996644146e-07
3.69963481391e-07
3.69960229406e-07
3.69956537912e-07
3.69952199363e-07
3.69946994744e-07
3.69940710446e-07
3.69933103451e-07
3.69923999034e-07
3.69913298215e-07
3.69900950571e-07
3.69886865482e-07
3.69871032816e-07
3.69853608533e-07
3.69834842316e-07
3.69815463808e-07
3.69796767005e-07
3.69776141394e-07
3.69755178391e-07
3.69734765064e-07
3.69714868426e-07
3.69695964125e-07
3.69678345504e-07
3.69660936971e-07
3.6964402895e-07
3.69627600801e-07
3.69612966619e-07
3.69600339244e-07
3.69589662423e-07
3.69581904764e-07
3.69577895939e-07
3.6957418303e-07
3.69564007275e-07
3.69555926912e-07
3.69553015674e-07
3.69549333306e-07
3.69542940793e-07
3.6953548761e-07
3.69527469527e-07
3.69519836288e-07
3.69513494635e-07
3.69509860293e-07
3.69507518886e-07
3.69505121343e-07
3.69499490625e-07
3.69496970739e-07
3.69494475418e-07
3.69489065454e-07
3.69483945812e-07
3.69480257384e-07
3.69477000792e-07
3.69471986618e-07
3.69465821518e-07
3.69459339521e-07
3.69449826586e-07
3.69437795757e-07
3.69422654792e-07
3.69405015238e-07
3.69385960738e-07
3.69366971911e-07
3.69348246265e-07
3.69330386008e-07
3.69313940698e-07
3.69299941077e-07
3.69287810276e-07
3.6927794436e-07
3.69269549946e-07
3.69262804503e-07
3.69257373479e-07
3.69252853821e-07
3.69249768876e-07
3.69247266742e-07
3.69244960162e-07
3.69243064074e-07
3.69241202267e-07
3.69239696014e-07
3.69238077365e-07
3.69236425027e-07
3.69233948593e-07
3.69230613386e-07
3.69226474312e-07
3.69221600922e-07
3.692165625e-07
3.69212534454e-07
3.69209195575e-07
3.69206476155e-07
3.69204110705e-07
3.6920175642e-07
3.69199191321e-07
3.69196445679e-07
3.69193645877e-07
3.69190832374e-07
3.691876727e-07
3.69183579104e-07
3.69177994217e-07
3.6917057769e-07
3.69161306282e-07
3.69149984928e-07
3.69136822057e-07
3.69122878927e-07
3.69109317192e-07
3.69095638119e-07
3.69083313392e-07
3.69070256506e-07
3.69057598279e-07
3.69046941558e-07
3.69038236087e-07
3.69030286295e-07
3.69022298034e-07
3.69014262077e-07
3.69005827574e-07
3.68997243093e-07
3.68988454781e-07
3.6897916887e-07
3.68969186914e-07
3.68958843205e-07
3.68948145226e-07
3.68936750737e-07
3.68923532568e-07
3.68909663156e-07
3.68894672228e-07
3.68877849086e-07
3.68860777112e-07
3.68844570874e-07
3.68829314072e-07
3.68815622506e-07
3.68802947924e-07
3.6879113361e-07
3.68779763661e-07
3.68768741378e-07
3.68757803994e-07
3.68747412495e-07
3.68737185536e-07
3.68727919624e-07
3.68719323727e-07
3.68711284127e-07
3.68705053707e-07
3.68698285448e-07
3.68691927278e-07
3.68685824827e-07
3.68679988317e-07
3.68674474301e-07
3.68669304045e-07
3.68664468497e-07
3.68659935992e-07
3.68655605564e-07
3.68651335342e-07
3.68647008955e-07
3.68642547425e-07
3.6863787762e-07
3.68632945434e-07
3.6862769874e-07
3.68622118409e-07
3.68616146713e-07
3.68609843867e-07
3.68603263161e-07
3.68596441237e-07
3.68589428006e-07
3.68582240107e-07
3.68574910092e-07
3.68567471803e-07
3.68559905385e-07
3.68552108417e-07
3.68544013515e-07
3.68535660403e-07
3.68527065583e-07
3.68518106599e-07
3.68508715016e-07
3.68498767199e-07
3.68488211774e-07
3.68477014584e-07
3.68465293938e-07
3.68453185685e-07
3.68440748426e-07
3.68428194577e-07
3.68415556697e-07
3.68402911196e-07
3.68390284626e-07
3.68377535225e-07
3.6836416318e-07
3.68350347355e-07
3.68335785261e-07
3.68320244154e-07
3.68303765038e-07
3.68286120944e-07
3.68267595149e-07
3.68248951436e-07
3.68230692222e-07
3.68213346184e-07