/*--------------------------------*- C++ -*----------------------------------*\
  =========                 |
  \\      /  F ield         | OpenFOAM: The Open Source CFD Toolbox
   \\    /   O peration     | Website:  https://openfoam.org
    \\  /    A nd           | Version:  6
     \\/     M anipulation  |
\*---------------------------------------------------------------------------*/
FoamFile
{
    version     2.0;
    format      ascii;
    class       volScalarField;
    location    "0.0005";
    object      magGradrho;
}
// * * * * * * * * * * * * * * * * * * * * * * * * * * * * * * * * * * * * * //

dimensions      [1 -4 0 0 0 0 0];

internalField   nonuniform List<scalar> 
32000
(
0.00823968929003
0.00757641996829
0.000872909008531
0.0019826957437
0.00237576667974
0.00266858640762
0.00242316414004
0.00224370001202
0.00190785274514
0.00213363976172
0.00288658138353
0.00431084639285
0.00696637630611
0.010506459138
0.0150448722149
0.0202117078136
0.0257237287455
0.031271628646
0.0369049679385
0.0424326673419
0.048081855318
0.0536675968065
0.0591185238171
0.0647168136013
0.070316356823
0.0760828110751
0.0815748221744
0.0868647339941
0.0923557907728
0.0980347853114
0.10326676216
0.108423082794
0.113178419811
0.118118762356
0.122389495643
0.126497518436
0.129958685114
0.130409905656
0.124345954831
0.114901268373
0.105836045934
0.0971037622863
0.0889220162656
0.0811565030001
0.0741286617468
0.0682806129546
0.0636926606698
0.0605425351616
0.0595116390694
0.0614903771423
0.0660088527739
0.0719811959967
0.079112736079
0.0870050408786
0.0952920914177
0.103916792162
0.113004670553
0.122548362827
0.132464970566
0.142892980274
0.154114103781
0.166007876532
0.176897139948
0.188056538983
0.201925294825
0.214232113249
0.226906039231
0.240659831794
0.255869902737
0.269859189647
0.286306364851
0.301849523467
0.317241315893
0.335035702426
0.351584156056
0.367072510689
0.382066937327
0.39864406185
0.412458254567
0.42449174686
0.43650942781
0.446988472235
0.453618861471
0.460402431408
0.463949508892
0.464462249924
0.46375867849
0.459423398057
0.451948987598
0.444924108306
0.44077986876
0.437210177265
0.432754933303
0.436328297116
0.451914943801
0.460423015105
0.482814695805
0.532658203266
0.558587013259
0.614524469514
0.709851283191
0.75589194898
0.88157572042
1.04289363741
1.14502526313
1.44054792022
1.6853885538
1.98824240259
2.57771749784
3.00503954522
3.85167967869
4.71313008393
5.74013086868
7.09686536735
8.36283864636
9.53896645357
8.94070686476
6.90692326615
5.06340635881
3.68534947544
2.6814491868
1.96316557802
1.454708711
1.09723269236
0.847451349689
0.673554324138
0.554309864076
0.474543223684
0.422273053285
0.389899496398
0.370893658304
0.36039351632
0.356246671818
0.355456516966
0.35625680738
0.358469302939
0.361928081401
0.36622953818
0.371122100313
0.376767284978
0.382775189541
0.389397964553
0.396606959742
0.404199422249
0.412636275329
0.421909427249
0.431676661374
0.442611421409
0.454847222131
0.467549651796
0.481661180547
0.496101480771
0.511121261372
0.526529129017
0.541833926063
0.557576306356
0.572834927197
0.588419551015
0.603718698417
0.619644792246
0.636819947576
0.65478631938
0.674372241984
0.694586454236
0.715101826229
0.735652864799
0.755880697793
0.775208529989
0.79482765677
0.81436770224
0.834677378695
0.857397167862
0.871311397492
0.85000734454
0.800113363957
0.74783321137
0.697658237276
0.648916660012
0.601296357895
0.558952197863
0.521986902741
0.489889144496
0.464386802845
0.443703679556
0.427224599328
0.414455972965
0.400990780388
0.386835271061
0.374104032112
0.360961635217
0.346534622512
0.330664362758
0.312128772367
0.292427945949
0.272441835368
0.254047981104
0.236173528067
0.221871843829
0.212207700485
0.201854190251
0.194620953694
0.188910135734
0.180272675618
0.171345885986
0.162633508965
0.152642064553
0.143553069572
0.136367068084
0.128370414734
0.118469120438
0.10902422993
0.101535493422
0.0947141184885
0.0863437492506
0.0755781621114
0.0634892581485
0.0510857053207
0.0396034433744
0.0297093339383
0.0205561608948
0.0137314436658
0.00593444806181
0.00393763254126
0.0109410594847
0.0150081111455
0.0170238811261
0.0177343906612
0.0175691247529
0.0167185230829
0.0155417914508
0.0141472753813
0.0125983355229
0.0115243333653
0.0113325297402
0.0117735538715
0.0128586646233
0.0147947799723
0.0177652922156
0.0218357180736
0.0268875778106
0.0326661102118
0.0388651544259
0.0451877701612
0.0513690160602
0.0571937117564
0.0625374644442
0.0672966562912
0.0717837300631
0.0762142623098
0.0805501605594
0.0849388649145
0.0895564653534
0.0947416305537
0.100726650563
0.107561823975
0.111574826205
0.108761149025
0.101977711057
0.0945077703647
0.0864147172946
0.0781429809036
0.0702890257096
0.0630574879386
0.0566506607762
0.0514308596384
0.0474547602025
0.0447013674709
0.0431175454133
0.04242231189
0.0425056187264
0.0430045378117
0.0435647283924
0.0440548256913
0.0441321452096
0.0438428431491
0.0431260723197
0.0418982213615
0.0402044139243
0.0384377692907
0.0367762320526
0.035248240064
0.0342989879418
0.0336098724237
0.0330522759455
0.0326929462999
0.0324919746113
0.032495343707
0.0327019227854
0.0331642632933
0.033997619433
0.0352915339473
0.0370742407417
0.0393936903399
0.0423635657023
0.0462370056841
0.051377561105
0.0578836248532
0.0653119550687
0.0733486242327
0.0827052880562
0.0942056280838
0.107022226219
0.120427696991
0.136109385752
0.154459519116
0.174778829921
0.195843195583
0.203377600321
0.196397137803
0.188045272441
0.179677589468
0.171617149001
0.164214409033
0.15704836771
0.149502559695
0.141319193536
0.132545048027
0.12332090445
0.113800463166
0.10416940148
0.09466509864
0.0855767803078
0.0772038566917
0.0697877397719
0.063444994277
0.0581636938214
0.0538390584407
0.0503220387658
0.0474575709676
0.0451294327318
0.0432466172956
0.0417291933852
0.0405331258144
0.039563422782
0.0388674152037
0.0385489822867
0.038555229525
0.0390611458613
0.0402114920067
0.0419958127705
0.0444745966438
0.0477449855636
0.0520320177431
0.0574501799844
0.0637277512361
0.0705327081425
0.0778534770451
0.0853672411645
0.0925662403355
0.0994424522038
0.105491144834
0.109180166552
0.109629009909
0.108662374556
0.108107338445
0.10794756482
0.108268274658
0.109404478472
0.111620624842
0.115199173389
0.1205459199
0.127935710613
0.137477133377
0.149275933275
0.163486424399
0.180208161946
0.199492612043
0.221446354108
0.246206473326
0.27338489379
0.289340899746
0.283707944222
0.268647595274
0.253584460575
0.238604618269
0.223739927176
0.209069496319
0.194693889845
0.180729262719
0.167299377016
0.154525998579
0.142529249741
0.131417917505
0.121278093686
0.112174021794
0.104138900837
0.0971689224704
0.09123446184
0.0862786769495
0.0822270237083
0.0790048870083
0.0765467513146
0.0747881305724
0.0736577848235
0.0730562248443
0.0728450079844
0.0729313518567
0.0732537575924
0.0737393728172
0.0745338187781
0.0759744780344
0.0782783702753
0.0815398440109
0.0859048482615
0.0916681566841
0.0992511155621
0.10914177613
0.121752019681
0.137224215004
0.155435191388
0.175898255368
0.187917592446
0.183122401075
0.171087188144
0.159629102839
0.149033854115
0.139461194196
0.131004577532
0.123717671048
0.117625785913
0.112714501738
0.108924324072
0.106152864291
0.104270970543
0.10315428114
0.102736205532
0.103049471087
0.104094406025
0.105820092203
0.108180418106
0.111106937555
0.114819866849
0.12000324231
0.127355954998
0.137079473368
0.149332715765
0.164975565614
0.184983315046
0.20976212863
0.239766294176
0.269030995096
0.27493997999
0.257705623309
0.237028091559
0.216449929322
0.196526032587
0.17768563202
0.160255927488
0.144471312837
0.130481096535
0.118345737242
0.108055351764
0.0995237775606
0.0926235226614
0.0871855051034
0.0830095553975
0.0798814001369
0.0776031251721
0.0759779285889
0.0748330025418
0.0742579499971
0.0742434155679
0.0747298335198
0.0760519571453
0.0787757715174
0.0835344981118
0.090902191915
0.101438659273
0.115883728424
0.135033344268
0.159231994699
0.188495476814
0.223163666573
0.261106807796
0.276234771129
0.260254814878
0.236888415295
0.214667672734
0.193927426148
0.174967584675
0.15798196535
0.143089219124
0.130324281938
0.119652549835
0.110977288318
0.104140419034
0.0989457600372
0.0951629607597
0.0925465743794
0.0908731577609
0.0899231309226
0.0894807305175
0.0893671932235
0.0894243595869
0.0895783725078
0.090032536656
0.0911602151212
0.0933082948705
0.0968555692699
0.102218556143
0.109915989508
0.120460687901
0.134292485539
0.151828238997
0.173372813176
0.199152768132
0.229517424952
0.265001373378
0.306080996483
0.34143378915
0.344270721158
0.321022884333
0.295888771366
0.271542864014
0.248316400822
0.226463270594
0.206225936984
0.187770844038
0.17119144636
0.156546236034
0.143841205524
0.133024650082
0.12400139357
0.116641313355
0.110796797343
0.106293864303
0.102956586269
0.100626324977
0.0991216336137
0.0982531206728
0.0978408745019
0.0977529232492
0.0978910351377
0.0983009112255
0.099252608032
0.101141254259
0.10435480647
0.109257164512
0.116218365637
0.125624956375
0.137841409261
0.153151985012
0.171783653543
0.193862312706
0.219349542439
0.247981182606
0.278391174711
0.293111587171
0.28416898525
0.268212349544
0.253606786151
0.240417031696
0.228669564539
0.218369909647
0.209488004533
0.201963021513
0.195719086474
0.190664349893
0.186694844715
0.183694293573
0.181543209589
0.180109249324
0.179257005299
0.178841479033
0.178728613948
0.178838512462
0.179170368663
0.179884812203
0.181265131314
0.183617169301
0.187240721306
0.192451552862
0.199586306895
0.208974957652
0.220940932205
0.234874921175
0.240902844398
0.235013716724
0.225632192507
0.216276121376
0.207263455702
0.198833903425
0.191162474787
0.184377128139
0.178550816486
0.173709061206
0.169821910379
0.16682022406
0.164620396777
0.163100580614
0.162136842137
0.161589783542
0.161323561248
0.161311713763
0.161667893945
0.16269372949
0.164799991478
0.168401850912
0.174002167884
0.182268223565
0.193965681123
0.209810307227
0.230589816177
0.257381110548
0.286086390347
0.293424184391
0.276191849508
0.253856707592
0.230904267149
0.208023768787
0.185798087493
0.164707603311
0.145127279354
0.12730197764
0.111394021135
0.0974993411414
0.0856249062251
0.0757254946281
0.0677011704136
0.061402488953
0.056654862799
0.053272284889
0.0510440871033
0.0497295555375
0.0490889320975
0.048906545489
0.0490042794104
0.0494493414637
0.0506328197254
0.0530672874695
0.0572777872937
0.0638055868923
0.073229230753
0.0861568772982
0.103219873917
0.125059697113
0.152310151774
0.185583677597
0.225467974159
0.272538974744
0.327399255381
0.390517197582
0.436983280514
0.431575085469
0.393958361809
0.355486115488
0.317973019244
0.281946187931
0.24783876094
0.215992857166
0.186667566098
0.160039047185
0.136204840027
0.115188652536
0.0969462421774
0.0813852810735
0.0683603690056
0.0576891248481
0.0491719812979
0.0425694228175
0.0376360732382
0.034112836879
0.0317523495905
0.0303123308431
0.029557215687
0.0292698489076
0.0292952383169
0.0297839954333
0.0311218188934
0.03371848112
0.0380465465884
0.0446480938709
0.0540147080029
0.0665203991358
0.0824679938916
0.102130640173
0.125701590458
0.153234788036
0.184672270082
0.219947894935
0.259053065604
0.302059331902
0.349240988943
0.401318556705
0.441949745183
0.441326093924
0.411705430775
0.380037241104
0.348194335685
0.316477561449
0.285222050006
0.254794002097
0.225574090397
0.197914337322
0.172111814607
0.148401484135
0.126954531333
0.107876756952
0.0912034970387
0.0769154628695
0.0649313870583
0.0551193651271
0.0473106715639
0.0413050867798
0.0368775133919
0.0337852575519
0.0317837531795
0.0306293243627
0.0300856067281
0.0299291750934
0.0301277496253
0.0309806494174
0.0329454077051
0.0365341587435
0.0423173640693
0.0508357030047
0.0625748932954
0.0779879782837
0.097443929
0.12115110143
0.149142987892
0.181249219267
0.216949909695
0.253680547993
0.269402125424
0.257550424801
0.23966205805
0.224047314572
0.210768589996
0.199802404956
0.191054850704
0.184368746456
0.179530502056
0.176282501642
0.174333073435
0.17336294574
0.173040545867
0.173115620692
0.173804525445
0.175808054848
0.180002595049
0.187429764629
0.199346698257
0.215586090887
0.222053435377
0.211924217449
0.19554229293
0.177228258294
0.157748593935
0.137818089383
0.118072345117
0.0990537254495
0.0812063565974
0.0648694531844
0.0502813499544
0.0375814341379
0.0268234573344
0.0179882025142
0.0110001679109
0.00573877612288
0.00209129772771
0.000377617309709
0.00221191415986
0.00487015219006
0.00957316714426
0.0137130128653
0.0133333450205
0.00993805288524
0.00677480543399
0.00426457579591
0.00246088475742
0.000777403330512
0.00154183224321
0.00555526765756
0.0121808134605
0.0217007410427
0.0344701009674
0.0507419379341
0.0706024627748
0.0939604975444
0.120558350148
0.149995387047
0.181740470536
0.215138839377
0.249448379662
0.283944393099
0.318199868978
0.344695918142
0.347331535832
0.332742805938
0.31738878237
0.302108218076
0.286392017692
0.269960904094
0.252734550752
0.234789811968
0.216320505909
0.197599976258
0.178944876557
0.160684785548
0.143135712773
0.126583085743
0.111265835103
0.0973690865501
0.085017683541
0.0742788954801
0.0651624670889
0.0576283701705
0.0515911177397
0.0469273662149
0.0434881456378
0.0411000028309
0.0395791619948
0.0387307478206
0.0383594081228
0.0382776490522
0.0384206339866
0.039005415157
0.0404170656285
0.0430505617857
0.0472989565255
0.0535172361575
0.0613170484103
0.0644567773987
0.0604404092589
0.0543394186754
0.0481994881567
0.0423245161146
0.0369412742388
0.0322050712666
0.0282045811223
0.0249705678731
0.022484355192
0.0206869809846
0.019487754991
0.0187764693702
0.0184301272952
0.0183179287103
0.0183701401042
0.0187102071309
0.0196210623985
0.0214210497138
0.0244506318594
0.0290646230548
0.0356192174031
0.044454325048
0.0558784125183
0.0701510475219
0.0874649345485
0.10793601114
0.131601534398
0.158434258469
0.188375221859
0.221386954594
0.257532834837
0.297086856242
0.340685812097
0.389298931985
0.424123821593
0.418901298266
0.388810475046
0.356919194312
0.324419964592
0.291782643365
0.259495510478
0.228033016489
0.197836673688
0.169292281969
0.142720254535
0.11835476942
0.0963559745686
0.0768066615783
0.059723594232
0.0450651052076
0.0327420079986
0.0226307217052
0.014571194429
0.0084022028045
0.00394602554788
0.00104832630966
0.00068775890419
0.00275283735423
0.00671770803589
0.0127284479652
0.0168793574642
0.0156003514729
0.0117641551958
0.00830318222869
0.00540928331099
0.0031927160747
0.00172566417319
0.000623902463438
0.000963586161275
0.00389214356545
0.00855837944676
0.0149616726338
0.0231362253244
0.0331061904009
0.0449091745134
0.0585676017932
0.0740295576657
0.0911769888279
0.109922225104
0.130293582099
0.152407670513
0.176388397785
0.202378954464
0.230642647782
0.26162197402
0.295974644372
0.334752035273
0.379099954777
0.40652520004
0.395143401402
0.363343658872
0.328985925998
0.293109172758
0.25666355527
0.220574346726
0.185688254168
0.152736636145
0.122319435511
0.0948953033378
0.0707850479235
0.0501786323918
0.0331523244848
0.0196907203205
0.00970098499578
0.0030352112696
0.00104738728378
0.00595076182937
0.0156442952532
0.0312623628834
0.0521013073646
0.066679287815
0.0630634287223
0.0499290826891
0.0375041820088
0.0264948054381
0.0172792647427
0.0101210931872
0.00520274217697
0.00192087762634
0.00194789538611
0.00924583306943
0.0216003466643
0.0395949530688
0.0636170535684
0.0939578278798
0.130953237515
0.174925697843
0.226114626196
0.284622751063
0.348071777338
0.377099900249
0.354617737876
0.316596543694
0.279457849096
0.243819632701
0.210184166267
0.178930272167
0.150310691455
0.124463545121
0.101430503921
0.0811830087687
0.0636425343074
0.048699793298
0.036220082633
0.0260494718981
0.0180064723104
0.0118804107947
0.00744045993491
0.00441909103223
0.0025525352654
0.00155059340964
0.00113262156706
0.00106632452597
0.00138558942694
0.00250402252915
0.00493071246051
0.00914111536303
0.0155391993549
0.0244567460874
0.0361306834348
0.0508262082541
0.0689646776947
0.0910813244585
0.117884915368
0.150101642392
0.188187703428
0.232152290524
0.281472489733
0.334567256702
0.36476900412
0.352992110416
0.323675821895
0.294866626012
0.266589254292
0.238977394988
0.212308419226
0.18688487377
0.162978832495
0.140884395476
0.120840799086
0.103011161308
0.0875076040563
0.0743587102536
0.0635276038344
0.054923779253
0.0483850232937
0.043701395006
0.0406048284942
0.0387972712469
0.0379400862653
0.0376914775893
0.0378824932702
0.0388393526292
0.0413026767524
0.0460776973911
0.0540061639295
0.0659564864389
0.0828316452971
0.105568121837
0.135134214784
0.168586700095
0.180067350229
0.162822508997
0.138954069756
0.115382488791
0.092921105316
0.0721128538659
0.05333710617
0.0369167355528
0.023165614978
0.0123944207426
0.00488742364776
0.000391973436673
0.0049595730295
0.0156997035831
0.0324653206694
0.0544387034627
0.0811666849942
0.104745688366
0.106426576429
0.0901766611806
0.0728724878547
0.0568067873823
0.0423426275726
0.0295953615873
0.0186674898044
0.00978916641812
0.00282110105133
0.00254148607324
0.0084398109199
0.0175999461793
0.0304632709797
0.0470091413685
0.0681110473599
0.0952293718149
0.129138717142
0.168880784726
0.211718874887
0.254625358582
0.296543816869
0.339302839393
0.381898538658
0.397051430954
0.379042554032
0.353813288376
0.328047249073
0.30135489451
0.273743590792
0.245569547379
0.217392215777
0.189839368878
0.163501342536
0.138878738272
0.11635982876
0.0961984195839
0.0784978037048
0.0632254302878
0.0503266853847
0.0398975754214
0.0321630716374
0.0267224351924
0.0214945539107
0.0164661220526
0.0129422151793
0.0107953064305
0.00965729750563
0.00890891194854
0.00871880400505
0.00867488355455
0.00926979272639
0.0122887114585
0.0167331573565
0.024437252289
0.0373635888694
0.0545362537253
0.0761420265841
0.101542786162
0.115277448785
0.106458841724
0.0884793432282
0.0708521365211
0.0542187935027
0.0391229463664
0.0259415710284
0.0150005087139
0.0066992823024
0.000788213643118
0.00367257654518
0.0069497876166
0.011960685715
0.0222850820897
0.0369594743178
0.0525640586911
0.0573567573558
0.0488103756371
0.0375149871595
0.0269684295756
0.0175523837869
0.00980131008147
0.00395612363561
0.000643279121377
0.00421806835337
0.00898204406468
0.0181590274458
0.0320443559843
0.0496217349009
0.0704499858456
0.0961536525732
0.128806514489
0.168034171753
0.21098628484
0.255232307417
0.300905795495
0.350417403684
0.382211785757
0.371697124862
0.338167729332
0.302907432735
0.266718037239
0.230129600378
0.193754881912
0.158321965954
0.124703035742
0.0938995096175
0.0668870892267
0.0443368775331
0.0263396823292
0.0125848909955
0.00115582631953
0.00923321281032
0.0182521421929
0.0294686428547
0.0478872044248
0.0767418365975
0.116549139607
0.142376492929
0.133556439604
0.109569483532
0.0870453785776
0.0664540234418
0.0482965799775
0.0332080259878
0.0218981277068
0.013552916241
0.00625346365294
0.000548897434124
0.0114114042217
0.0312763419742
0.059249651189
0.0947084274943
0.138454341355
0.190600754397
0.251191125961
0.31348594614
0.333872482087
0.305227810173
0.267234559971
0.23040373067
0.195330936741
0.162569890049
0.132586673539
0.105738482681
0.0822411741133
0.0621535653099
0.0453876212487
0.0317241718642
0.020887436829
0.0125908146094
0.0065669007363
0.00255257436173
0.000182511735217
0.00105319815369
0.00143403914394
0.00101721703868
9.09505934107e-05
0.00277040844855
0.00803001729617
0.0159337663772
0.0271529562642
0.0431700336785
0.0653560378651
0.0941835024158
0.113454824791
0.107044799268
0.0875629424659
0.0684474189372
0.0509009331651
0.0355834747036
0.0228889035926
0.0130435003309
0.00622453531209
0.00160438575457
0.00372634859113
0.0128333132321
0.0267414005766
0.0416295565327
0.0442616655892
0.0343838313355
0.0234119677703
0.0139383445351
0.00651296460285
0.00035584789618
0.00462068515774
0.0101142222408
0.0201343963903
0.0370563056856
0.0617148456032
0.0937552423175
0.133825366659
0.184305716483
0.246278836065
0.315868813452
0.35003335366
0.326509958275
0.282521796015
0.238596692031
0.19590367213
0.155529918185
0.118436967952
0.0855113902615
0.0574930327077
0.0348239479365
0.0175466593246
0.00512505940464
0.00429251603663
0.0131016911843
0.0267252609458
0.0504888016925
0.0857447854527
0.130577064755
0.154301892656
0.139826415448
0.112591171498
0.0872037759456
0.0643974440364
0.04476163463
0.028685198978
0.0164282365614
0.00817624396573
0.00238748339783
0.00481806940265
0.0181158870012
0.0390037639832
0.0665187974348
0.100009724643
0.137752044129
0.177624566289
0.217390157782
0.254264622944
0.28559094039
0.310367572214
0.329957009255
0.33889889555
0.333336551611
0.320007211745
0.302278389278
0.279689030722
0.25276467215
0.222655565084
0.190785586367
0.15857458334
0.127321639999
0.0981476175219
0.0719834570965
0.049576923259
0.0314318095721
0.017765332018
0.00866602898871
0.0021700754518
0.0057953477206
0.0200146286231
0.0438304256794
0.0780973773628
0.122459904951
0.175813187461
0.237982837941
0.289759930843
0.291493592528
0.255600619207
0.217697885208
0.181259340037
0.147015966101
0.115554152
0.0873082183666
0.0626414834251
0.04189029494
0.0253598523176
0.0132501178795
0.00570385688009
5.22463474394e-07
0.00953661124462
0.0271642011104
0.0538462487185
0.088541872252
0.13034299109
0.17920513327
0.235170466476
0.291393789355
0.310666238941
0.288540606244
0.259627727453
0.232095316719
0.205518057995
0.179850232005
0.155306122539
0.132218728829
0.110969607481
0.0919114947768
0.0753101806367
0.0613138394012
0.0499430328468
0.0410931854191
0.0345571410452
0.0300646068273
0.0272828159375
0.0258360790032
0.0253219016735
0.0254068755726
0.0260468980932
0.027721896657
0.0311374952574
0.0367327019322
0.0446970858866
0.055072439037
0.0674171142859
0.0760351406473
0.0749644000575
0.0691429409739
0.0643723178787
0.0607730957014
0.0581954781728
0.0564169787336
0.0552336890591
0.0546787397521
0.0547534081171
0.0556538764596
0.0581589412908
0.0630519441611
0.0708430164401
0.0820614953583
0.0974141681573
0.117400677619
0.142277585106
0.172493507963
0.208750566883
0.251975967307
0.28370708156
0.277878248605
0.2476444042
0.214448837508
0.180179984866
0.146149711053
0.113633081557
0.083857916873
0.0580006640448
0.0370780796691
0.0217571021166
0.011094628733
0.00133973700569
0.0117710183495
0.0347186307622
0.0720682824399
0.122023184064
0.178315227173
0.201299426791
0.178000772792
0.14310120923
0.110344562615
0.0813164870947
0.0568639736551
0.0373208724683
0.0225800403288
0.0127382058753
0.00448110847257
0.00533794434652
0.0196749082038
0.0424386760868
0.0743969235642
0.113918483125
0.156024480894
0.195184046307
0.228248440537
0.254463356713
0.271480809926
0.275713403127
0.274257607497
0.27695665437
0.288875677322
0.303173731741
0.298723890816
0.275509934307
0.246017005991
0.213269376153
0.179522507797
0.146606702207
0.115837189198
0.0880244990483
0.0636117878207
0.0428586982126
0.0259979862942
0.0132602338653
0.00489096015099
0.000282122029189
0.00720217390555
0.0151209785681
0.014860399423
0.00818182828834
0.00220179464396
0.00289904525353
0.0104547298423
0.0224808433647
0.0378503224981
0.0569358259703
0.0757057957518
0.0787122831275
0.0664449474711
0.0525477441708
0.0396770293698
0.0282731793647
0.0191254221092
0.00943799276362
0.000624975948272
0.00987081142463
0.0219186129208
0.0387426585767
0.0625438776198
0.0946937293595
0.132556699231
0.169702208072
0.200153118467
0.211159095718
0.201033455143
0.183634771561
0.163667792372
0.141029865653
0.116285557533
0.0904029923382
0.0647347045462
0.0410398710425
0.021375283833
0.0069712253304
0.00423091656545
0.0138663549826
0.0205772135182
0.0289702916739
0.0486590752782
0.0794248028549
0.113101842231
0.146487347524
0.178467869396
0.204219940974
0.221095793425
0.224848412211
0.21742158701
0.207372872938
0.196035585114
0.182820612486
0.167706312118
0.150978071776
0.133131355784
0.114696820633
0.0961850412675
0.078192197457
0.0613696005824
0.0464032244834
0.0339226547417
0.0243417826439
0.017799524754
0.0140119512184
0.0123746644957
0.0123780729324
0.0136656862681
0.0166872491471
0.022737037775
0.0327651840333
0.0466610787059
0.0631892501556
0.0809704575594
0.099525388723
0.118334415039
0.126118959775
0.118766101105
0.106707773688
0.0938940358021
0.0806049469299
0.0674168387554
0.0551589965039
0.0445831514897
0.0362199605372
0.0302084788456
0.0262225822767
0.023906751393
0.0233245581606
0.0248549780892
0.0296728967298
0.0394704955644
0.0551320657362
0.0762814858209
0.101489579133
0.128985468682
0.157192799296
0.169161007455
0.155963371678
0.131844746174
0.104031320667
0.0741460122168
0.0449994099979
0.019331759571
0.0056811669388
0.0278248800346
0.0478041938331
0.0756819452632
0.113104569805
0.154433527138
0.190384329899
0.214792411556
0.23171952083
0.249425897961
0.254870858706
0.240341145653
0.217895771287
0.190854891728
0.159014039722
0.123255477235
0.086881955314
0.0557139038794
0.0244656831356
0.00801835718807
0.0427481231191
0.0810260160594
0.111980720184
0.133463068397
0.149886610412
0.164266627776
0.176305762424
0.185252481621
0.192226137727
0.201499988971
0.207779013202
0.194329863645
0.162797754044
0.125093859936
0.0847153761166
0.0445430473989
0.00354400460638
0.0595572703226
0.115035182999
0.167452957859
0.214718660844
0.255529015634
0.284519867767
0.316540421389
0.352852970923
0.353914005244
0.325089748632
0.292145733008
0.251217942366
0.201408376388
0.145238988287
0.0879615966919
0.0363826439738
0.0142376799581
0.0738490646212
0.128021791841
0.16761139705
0.200819780447
0.228786670023
0.251166929647
0.269066862081
0.285635513648
0.304987992358
0.328254861441
0.34314343567
0.343534541898
0.337649448788
0.328829808508
0.317085663615
0.302518628539
0.282406772239
0.243470625477
0.195232946392
0.154962971013
0.120829617798
0.0936329005768
0.0735307774396
0.0605712258909
0.0547757009883
0.057174685843
0.0661149749385
0.0794775465736
0.0972575875597
0.118167689112
0.141117832009
0.165044939277
0.188791910445
0.211009520424
0.230258186505
0.245437397092
0.256286809008
0.263478549625
0.265948869183
0.260307575445
0.248221319202
0.23290381798
0.214193284956
0.192603894701
0.169177271617
0.145119332178
0.121596922833
0.0996292665056
0.0800123822108
0.063540696487
0.0514525910344
0.0453210565816
0.0453773875739
0.0501565824762
0.059594872573
0.0742753683612
0.0935705323608
0.11675239406
0.143006476243
0.171353231849
0.200694587471
0.229894766258
0.257848515341
0.283554775683
0.30616415119
0.32502542722
0.339755040612
0.350307448054
0.357012345352
0.360521133317
0.360015291076
0.35543514046
0.348687788585
0.340555579639
0.331220975192
0.321006935616
0.310216439358
0.299071584172
0.287701926916
0.276158804796
0.264429608669
0.252454736707
0.240153187794
0.227455346982
0.214322480508
0.200761589424
0.18685421181
0.172758777686
0.158724637851
0.145114503794
0.132394301303
0.121099952097
0.111799135292
0.105064715185
0.101477417638
0.102130277438
0.107030278452
0.115765803172
0.128699003502
0.145773885729
0.166781376728
0.191222780859
0.218329860973
0.247093440333
0.276241235321
0.304309251647
0.329809464637
0.351475387578
0.368466028791
0.380263683828
0.386978396867
0.389103110353
0.384915796379
0.373695580455
0.356827472252
0.335106025035
0.309684037917
0.281724223581
0.252339905309
0.222582421237
0.193490559705
0.166062883736
0.141221691925
0.119769218324
0.102352204459
0.0894414323659
0.0813674907763
0.0785269673148
0.0811118372522
0.0880666619556
0.0984252593875
0.111903429681
0.127814438518
0.145378421302
0.16376951664
0.182154792289
0.199752865638
0.215879823199
0.229990174797
0.241704788303
0.25082543228
0.257334340542
0.261385636702
0.263325816152
0.263490570342
0.262160360419
0.260099319571
0.258083705353
0.256568774655
0.256103149274
0.257090236717
0.259598463543
0.263627769399
0.269198254998
0.276210490647
0.284464148431
0.293643197143
0.303369539575
0.313218559274
0.322728474516
0.331420876047
0.338840147945
0.344591809849
0.348352392207
0.350030496752
0.349261469818
0.345872028407
0.340370937577
0.333164784252
0.32458200193
0.315052609794
0.305062326237
0.295079986874
0.285518342128
0.276692991272
0.26878945184
0.261839595408
0.25571375688
0.250131749554
0.244692965268
0.238922618652
0.232329863726
0.224474543112
0.215033702292
0.203863219983
0.19104450982
0.176904759487
0.162024793876
0.147215002469
0.133462773947
0.12186217332
0.113520286939
0.10953334597
0.111514640498
0.119353266976
0.132315891309
0.150613408753
0.173661532916
0.200545522657
0.22998711993
0.260464415873
0.290350038715
0.318041277449
0.342097830556
0.361363145649
0.375071289104
0.383053849464
0.388163106782
0.391294265169
0.390145518708
0.38400338388
0.371375387626
0.353889424781
0.335602859239
0.318855309532
0.305619603506
0.297252737123
0.294809917177
0.298623440765
0.307128892383
0.318529541347
0.331569764435
0.344476890728
0.355381848596
0.362541657018
0.364926106247
0.360536738614
0.34869193077
0.330523583107
0.306581172113
0.278073753577
0.246598313211
0.214104571562
0.182692960688
0.154461485812
0.131360199588
0.115035566771
0.106697810444
0.108431690474
0.119411782095
0.137456804094
0.16209258941
0.191859854025
0.225010228879
0.259422370518
0.292917902824
0.323417511826
0.349108398002
0.368612891384
0.381061412542
0.388256746145
0.395336233379
0.405700935667
0.420042211426
0.439061734772
0.462360198388
0.473291557495
0.463127677456
0.445240711573
0.426025117184
0.406384811469
0.377451741837
0.325616015698
0.259134012156
0.193946448275
0.136589239762
0.0917175504376
0.0619357760608
0.0484230440532
0.0533144328761
0.0732652512487
0.103293531923
0.141899767148
0.185886490473
0.231944747774
0.276597546219
0.31657322381
0.349109287905
0.372138011405
0.38547154845
0.392081526376
0.391568176827
0.378548024277
0.353157536428
0.320214085253
0.283806605352
0.247648407888
0.214867278872
0.188131066511
0.169433743575
0.160014341162
0.161866900061
0.173605091045
0.192323129545
0.217062342762
0.245846805176
0.276551715545
0.306859093944
0.334560978826
0.357756472015
0.375011740147
0.385556094405
0.392117103027
0.399688829543
0.41038546275
0.416691829294
0.412450289488
0.403105641763
0.390550985749
0.365365090177
0.327540267787
0.286393746395
0.246096078466
0.210017338094
0.180262015911
0.15820113513
0.144630473291
0.140220353414