/*--------------------------------*- C++ -*----------------------------------*\
  =========                 |
  \\      /  F ield         | OpenFOAM: The Open Source CFD Toolbox
   \\    /   O peration     | Website:  https://openfoam.org
    \\  /    A nd           | Version:  6
     \\/     M anipulation  |
\*---------------------------------------------------------------------------*/
FoamFile
{
    version     2.0;
    format      ascii;
    class       volScalarField;
    location    "0.0005";
    object      maxp;
}
// * * * * * * * * * * * * * * * * * * * * * * * * * * * * * * * * * * * * * //

dimensions      [1 -1 -2 0 0 0 0];

internalField   nonuniform List<scalar> 
32000
(
550000
550000
550000
550000
550000
550000
550000
550000
550000
550000
550000
550000
550000
550000
550000
550000
550000
550000
550000
550000
550000
550000
550000
550000
550000
550000
550000
550000
550000
550000
550000
550000
550000
550000
550000
550000
550000
550000
550000
550000
550000
550000
550000
550000
550000
550000
550000
550000
550000
550000
550000
550000
550000
550000
550000
550000
550000
550000
550000
550000
550000
550000
550000
550000
550000
550000
550000
550000
550000
550000
550000
550000
550000
550000
550000
550000
550000
550000
550000
550000
550000
550000
550000
550000
550000
550000
550000
550000
550000
550000
550000
550000
550000
550000
550000
550000
550000
550000
550000
550000
550000
550000
550000
550000
550000
550000
550000
550000
550000
550000
550000
550000
550000
550000
550000
550000
550000
550000
550000
550000
550000
550000
550000
550000
550000
550000
550000
550000
550000
550000
550000
550000
550000
550000
550000
550000
550000
550000
550000
550000
550000
550000
550000
550000
550000
550000
550000
550000
550000
550000
550000
550000
550000
550000
550000
550000
550000
550000
550000
550000
550000
550000
550000
550000
550000
550000
550000
550000
550000
550000
550000
550000
550000
550000
550000
550000
550000
550000
550000
550000
550000
550000
550000
550000
550000
550000
550000
550000
550000
550000
550000
550000
550000
550000
550000
550000
550000
550000
550000
550000
550000
550000
550000
550000
550000
550000
550000
550000
550000
550000
550000
550000
550000
550000
550000
550000
550000
550000
550000
550000
550000
550000
550000
550000
550000
550000
550000
550000
550000
550000
550000
550000
550000
550000
550000
550000
550000
550000
550000
550000
550000
550000
550000
550000
550000
550000
550000
550000
550000
550000
550000
550000
550000
550000
550000
550000
550000
550000
550000
550000
550000
550000
550000
550000
550000
550000
550000
550000
550000
550000
550000
550000
550000
550000
550000
550000
550000
550000
550000
550000
550000
550000
550000
550000
550000
550000
550000
550000
550000
550000
550000
550000
550000
550000
550000
550000
550000
550000
550000
550000
550000
550000
550000
550000
550000
550000
550000
550000
550000
550000
550000
550000
550000
550000
550000
550000
550000
550000
550000
550000
550000
550000
550000
550000
550000
550000
550000
550000
550000
550000
550000
550000
550000
550000
550000
550000
550000
550000
550000
550000
550000
550000
550000
550000
550000
550000
550000
550000
550000
550000
550000
550000
550000
550000
550000
550000
550000
550000
550000
550000
550000
550000
550000
550000
550000
550000
550000
550000
550000
550000
550000
550000
550000
550000
550000
550000
550000
550000
550000
550000
550000
550000
550000
550000
550000
550000
550000
550000
550000
550000
550000
550000
550000
550000
550000
550000
550000
550000
550000
550000
550000
550000
550000
550000
550000
550000
550000
550000
550000
550000
550000
550000
550000
550000
550000
550000
550000
550000
550000
550000
550000
550000
550000
550000
550000
550000
550000
550000
550000
550000
550000
550000
550000
550000
550000
550000
550000
550000
550000
550000
550000
550000
550000
550000
550000
550000
550000
550000
550000
550000
550000
550000
550000
550000
550000
550000
550000
550000
550000
550000
550000
550000
550000
550000
550000
550000
550000
550000
550000
550000
550000
550000
550000
550000
550000
550000
550000
550000
550000
550000
550000
550000
550000
550000
550000
550000
550000
550000
550000
550000
550000
550000
550000
550000
550000
550000
550000
550000
550000
550000
550000
550000
550000
550000
550000
550000
550000
550000
550000
550000
550000
550000
550000
550000
550000
550000
550000
550000
550000
550000
550000
550000
550000
550000
550000
550000
550000
550000
550000
550000
550000
550000
550000
550000
550000
550000
550000
550000
550000
550000
550000
550000
550000
550000
550000
550000
550000
550000
550000
550000
550000
550000
550000
550000
550000
550000
550000
550000
550000
550000
550000
550000
550000
550000
550000
550000
550000
550000
550000
550000
550000
550000
550000
550000
550000
550000
550000
550000
550000
550000
550000
550000
550000
550000
550000
550000
550000
550000
550000
550000
550000
550000
550000
550000
550000
550000
550000
550000
550000
550000
550000
550000
550000
550000
550000
550000
550000
550000
550000
550000
550000
550000
550000
550000
550000
550000
550000
550000
550000
550000
550000
550000
550000
550000
550000
550000
550000
550000
550000
550000
550000
550000
550000
550000
550000
550000
550000
550000
550000
550000
550000
550000
550000
550000
550000
550000
550000
550000
550000
550000
550000
550000
550000
550000
550000
550000
550000
550000
550000
550000
550000
550000
550000
550000
550000
550000
550000
550000
550000
550000
550000
550000
550000
550000
550000
550000
550000
550000
550000
550000
550000
550000
550000
550000
550000
550000
550000
550000
550000
550000
550000
550000
550000
550000
550000
550000
550000
550000
550000
550000
550000
550000
550000
550000
550000
550000
550000
550000
550000
550000
550000
550000
550000
550000
550000
550000
550000
550000
550000
550000
550000
550000
550000
550000
550000
550000
550000
550000
550000
550000
550000
550000
550000
550000
550000
550000
550000
550000
550000
550000
550000
550000
550000
550000
550000
550000
550000
550000
550000
550000
550000
550000
550000
550000
550000
550000
550000
550000
550000
550000
550000
550000
550000
550000
550000
550000
550000
550000
550000
550000
550000
550000
550000
550000
550000
550000
550000
550000
550000
550000
550000
550000
550000
550000
550000
550000
550000
550000
550000
550000
550000
550000
550000
550000
550000
550000
550000
550000
550000
550000
550000
550000
550000
550000
550000
550000
550000
550000
550000
550000
550000
550000
550000
550000
550000
550000
550000
550000
550000
550000
550000
550000
550000
550000
550000
550000
550000
550000
550000
550000
550000
550000
550000
550000
550000
550000
550000
550000
550000
550000
550000
550000
550000
550000
550000
550000
550000
550000
550000
550000
550000
550000
550000
550000
550000
550000
550000
550000
550000
550000
550000
550000
550000
550000
550000
550000
550000
550000
550000
550000
550000
550000
550000
550000
550000
550000
550000
550000
550000
550000
550000
550000
550000
550000
550000
550000
550000
550000
550000
550000
550000
550000
550000
550000
550000
550000
550000
550000
550000
550000
550000
550000
550000
550000
550000
550000
550000
550000
550000
550000
550000
550000
550000
550000
550000
550000
550000
550000
550000
550000
550000
550000
550000
550000
550000
550000
550000
550000
550000
550000
550000
550000
550000
550000
550000
550000
550000
550000
550000
550000
550000
550000
550000
550000
550000
550000
550000
550000
550000
550000
550000
550000
550000
550000
550000
550000
550000
550000
550000
550000
550000
550000
550000
550000
550000
550000
550000
550000
550000
550000
550000
550000
550000
550000
550000
550000
550000
550000
550000
550000
550000
550000
550000
550000
550000
550000
550000
550000
550000
550000
550000
550000
550000
550000
550000
550000
550000
550000
550000
550000
550000
550000
550000
550000
550000
550000
550000
550000
550000
550000
550000
550000
550000
550000
550000
550000
550000
550000
550000
550000
550000
550000
550000
550000
550000
550000
550000
550000
550000
550000
550000
550000
550000
550000
550000
550000
550000
550000
550000
550000
550000
550000
550000
550000
550000
550000
550000
550000
550000
550000
550000
550000
550000
550000
550000
550000
550000
550000
550000
550000
550000
550000
550000
550000
550000
550000
550000
550000
550000
550000
550000
550000
550000
550000
550000
550000
550000
550000
550000
550000
550000
550000
550000
550000
550000
550000
550000
550000
550000
550000
550000
550000
550000
550000
550000
550000
550000
550000
550000
550000
550000
550000
550000
550000
550000
550000
550000
550000
550000
550000
550000
550000
550000
550000
550000
550000
550000
550000
550000
550000
550000
550000
550000
550000
550000
550000
550000
550000
550000
550000
550000
550000
550000
550000
550000
550000
550000
550000
550000
550000
550000
550000
550000
550000
550000
550000
550000
550000
550000
550000
550000
550000
550000
550000
550000
550000
550000
550000
550000
550000
550000
550000
550000
550000
550000
550000
550000
550000
550000
550000
550000
550000
550000
550000
550000
550000
550000
550000
550000
550000
550000
550000
550000
550000
550000
550000
550000
550000
550000
550000
550000
550000
550000
550000
550000
550000
550000
550000
550000
550000
550000
550000
550000
550000
550000
550000
550000
550000
550000
550000
550000
550000
550000
550000
550000
550000
550000
550000
550000
550000
550000
550000
550000
550000
550000
550000
550000
550000
550000
550000
550000
550000
550000
550000
550000
550000
550000
550000
550000
550000
550000
550000
550000
550000
550000
550000
550000
550000
550000
550000
550000
550000
550000
550000
550000
550000
550000
550000
550000
550000
550000
550000
550000
550000
550000
550000
550000
550000
550000
550000
550000
550000
550000
550000
550000
550000
550000
550000
550000
550000
550000
550000
550000
550000
550000
550000
550000
550000
550000
550000
550000
550000
550000
550000
550000
550000
550000
550000
550000
550000
550000
550000
550000
550000
550000
550000
550000
550000
550000
550000
550000
550000
550000
550000
550000
550000
550000
550000
550000
550000
550000
550000
550000
550000
550000
550000
550000
550000
550000
550000
550000
550000
550000
550000
550000
550000
550000
550000
550000
550000
550000
550000
550000
550000
550000
550000
550000
550000
550000
550000
550000
550000
550000
550000
550000
550000
550000
550000
550000
550000
550000
550000
550000
550000
550000
550000
550000
550000
550000
550000
550000
550000
550000
550000
550000
550000
550000
550000
550000
550000
550000
550000
550000
550000
550000
550000
550000
550000
550000
550000
550000
550000
550000
550000
550000
550000
550000
550000
550000
550000
550000
550000
550000
550000
550000
550000
550000
550000
550000
550000
550000
550000
550000
550000
550000
550000
550000
550000
550000
550000
550000
550000
550000
550000
550000
550000
550000
550000
550000
550000
550000
550000
550000
550000
550000
550000
550000
550000
550000
550000
550000
550000
550000
550000
550000
550000
550000
550000
550000
550000
550000
550000
550000
550000
550000
550000
550000
550000
550000
550000
550000
550000
550000
550000
550000
550000
550000
550000
550000
550000
550000
550000
550000
550000
550000
550000
550000
550000
550000
550000
550000
550000
550000
550000
550000
550000
550000
550000
550000
550000
550000
550000
550000
550000
550000
550000
550000
550000
550000
550000
550000
550000
550000
550000
550000
550000
550000
550000
550000
550000
550000
550000
550000
550000
550000
550000
550000
550000
550000
550000
550000
550000
550000
550000
550000
550000
550000
550000
550000
550000
550000
550000
550000
550000
550000
550000
550000
550000
550000
550000
550000
550000
550000
550000
550000
550000
550000
550000
550000
550000
550000
550000
550000
550000
550000
550000
550000
550000
550000
550000
550000
550000
550000
550000
550000
550000
550000
550000
550000
550000
550000
550000
550000
550000
550000
550000
550000
550000
550000
550000
550000
550000
550000
550000
550000
550000
550000
550000
550000
550000
550000
550000
550000
550000
550000
550000
550000
550000
550000
550000
171626.550806
149314.762417
149018.539053
148794.767761
148608.89048
148447.300843
148303.078268
148171.991993
148051.264764
147938.959751
147833.757133
147734.454188
147640.239395
147553.983321
147477.382121
147400.851525
147324.401021
147248.019747
147171.710535
147095.473178
147019.281792
146943.143389
146867.06838
146791.069673
146715.151488
146639.300942
146563.511104
146487.785887
146412.135381
146336.560413
146261.053973
146185.618103
146110.241867
146034.913853
145959.649459
145884.459229
145809.330945
145734.265391
145659.275786
145584.348176
145509.475068
145434.671743
145359.937913
145285.267074
145210.664693
145136.127215
145061.647444
144987.226777
144912.885886
144838.613427
144764.407106
144690.25333
144616.160552
144542.148425
144468.195609
144394.304077
144320.474601
144246.714549
144173.027265
144099.383354
144025.806276
143952.292411
143878.835704
143805.449904
143732.122925
143658.846419
143585.66522
143512.547071
143439.483071
143366.497941
143293.552324
143220.654963
143147.843705
143075.086019
143002.359955
142929.731216
142857.176249
142784.656099
142712.224096
142639.855237
142567.53982
142495.28205
142423.103022
142350.978073
142278.883653
142206.865367
142134.920633
142063.04878
141991.229936
141919.458676
141847.761778
141776.099769
141704.505583
141632.999936
141561.509391
141490.098149
141418.805773
141347.524577
141276.304715
141205.174198
141134.0689
141063.032046
140992.063195
140921.127504
140850.255601
140779.483887
140708.746881
140638.087909
140567.475063
140496.902809
140426.418797
140355.981607
140285.584437
140215.273236
140145.029323
140074.826956
140004.68529
139934.57862
139864.555655
139794.633107
139724.745936
139654.893438
139585.115679
139515.398771
139445.72216
139376.117928
139306.580546
139237.081987
139167.631312
139098.247692
139028.935832
138959.684799
138890.489057
138821.346542
138752.257763
138683.225111
138614.252303
138545.342133
138476.487801
138407.695047
138338.969924
138270.28868
138201.663984
138133.094755
138064.584531
137996.135556
137927.745186
137859.411291
137791.133774
137722.912116
137654.743885
137586.629561
137518.573201
137450.576814
137382.63786
137314.752866
137246.921792
137179.148745
137111.434707
137043.780011
136976.182282
136908.639406
136841.150358
136773.715948
136706.336731
136639.012382
136571.742158
136504.529822
136437.374039
136370.272008
136303.226146
136236.237863
136169.307346
136102.433186
136035.614207
135968.847668
135902.132943
135835.471824
135768.865392
135702.314219
135635.818034
135569.377278
135502.990751
135436.658506
135370.382632
135304.161243
135237.990885
135171.872345
135105.809657
135039.804314
134973.856974
134907.967059
134842.130384
134776.344777
134710.611756
134644.931429
134579.303914
134513.730363
134448.20976
134382.740228
134317.322825
134251.959859
134186.650162
134121.393895
134056.19305
133991.046356
133925.953263
133860.914448
133795.928418
133730.994061
133666.111277
133601.280124
133536.500995
133471.775427
133407.103946
133342.484332
133277.914582
133213.39648
133148.931848
133084.52227
133020.168768
132955.867606
132891.616092
132827.414511
132763.261929
132699.159143
132635.109153
132571.111666
132507.166748
132443.275518
132379.436161
132315.647117
132251.910001
132188.225857
132124.59458
132061.017135
131997.491273
131934.012775
131870.581488
131807.198685
131743.865993
131680.584297
131617.353361
131554.173249
131491.046086
131427.972135
131364.948016
131301.973651
131239.050707
131176.176919
131113.353063
131050.581804
130987.860012
130925.184045
130862.555796
130799.981417
130737.464314
130675.003
130612.593277
130550.230001
130487.910399
130425.635183
130363.405751
130301.221555
130239.085405
130177.002921
130114.973659
130052.993072
129991.060191
129929.179291
129867.352455
129805.579367
129743.856858
129682.180366
129620.552925
129558.973816
129497.436627
129435.944377
129374.503577
129313.115688
129251.779423
129190.491188
129129.253504
129068.067974
129006.931158
128945.843328
128884.804632
128823.813254
128762.869703
128701.972059
128641.119756
128580.315107
128519.556864
128458.848149
128398.189778
128337.573533
128276.999931
128216.481346
128156.02189
128095.616959
128035.26292
127974.952148
127914.676429
127854.439814
127794.259689
127734.140024
127674.065852
127614.028695
127554.035067
127494.094701
127434.198297
127374.341501
127314.545117
127254.802159
127195.09079
127135.430386
127075.824471
127016.265138
126956.758872
126897.299898
126837.880062
126778.505635
126719.176053
126659.881833
126600.646668
126541.465222
126482.325974
126423.236325
126364.191453
126305.190387
126246.238361
126187.323469
126128.454181
126069.636678
126010.858048
125952.126972
125893.451285
125834.834582
125776.2485
125717.694807
125659.209274
125600.778719
125542.369599
125484.01329
125425.717461
125367.462907
125309.242345
125251.066525
125192.929552
125134.841841
125076.812496
125018.822579
124960.881978
124902.985197
124845.128168
124787.318532
124729.561982
124671.844195
124614.166071
124556.537007
124498.951886
124441.411795
124383.92019
124326.46749
124269.060317
124211.708258
124154.40282
124097.140259
124039.921564
123982.742962
123925.604763
123868.51395
123811.471365
123754.470151
123697.506066
123640.582442
123583.711796
123526.885727
123470.116932
123413.382854
123356.699148
123300.044674
123243.42432
123186.863485
123130.345928
123073.885872
123017.474858
122961.09536
122904.751412
122848.444661
122792.187743
122735.972993
122679.799752
122623.66988
122567.585855
122511.557522
122455.577509
122399.613421
122343.692507
122287.843225
122232.025321
122176.259119
122120.521073
122064.838174
122009.19552
121953.587314
121898.017535
121842.47973
121786.991268
121731.565647
121676.177176
121620.805415
121565.478456
121510.225059
121455.023637
121399.838818
121344.677114
121289.576383
121234.523739
121179.509918
121124.541477
121069.604166
121014.716678
120959.889377
120905.08013
120850.322909
120795.617015
120740.926123
120686.269123
120631.680833
120577.144092
120522.625217
120468.141189
120413.718828
120359.342522
120305.011116
120250.721394
120196.452971
120142.209768
120088.018576
120033.879267
119979.783473
119925.731045
119871.707973
119817.729871
119763.789347
119709.887157
119656.034383
119602.219498
119548.439782
119494.712003
119441.029031
119387.372763
119333.75478
119280.19993
119226.677672
119173.192918
119119.739815
119066.331841
119012.977534
118959.656114
118906.357502
118853.104924
118799.909452
118746.747325
118693.621492
118640.532127
118587.481758
118534.47931
118481.512985
118428.587838
118375.698016
118322.863417
118270.054195
118217.298808
118164.568052
118111.878556
118059.23542
118006.623989
117954.046502
117901.513818
117849.02525
117796.586085
117744.183974
117691.81532
117639.480831
117587.19287
117534.936439
117482.708673
117430.532612
117378.403911
117326.318402
117274.272406
117222.255238
117170.277058
117118.338467
117066.428785
117014.561481
116962.73469
116910.938369
116859.192405
116807.493182
116755.828043
116704.200711
116652.605686
116601.062042
116549.553057
116498.074766
116446.623748
116395.221392
116343.851216
116292.526146
116241.232529
116189.984442
116138.767753
116087.59365
116036.457716
115985.367219
115934.312878
115883.287889
115832.305745
115781.363139
115730.451729
115679.580996
115628.749182
115577.952818
115527.189195
115476.462594
115425.779792
115375.135087
115324.523658
115273.948946
115223.408763
115172.904038
115122.434632
115072.003935
115021.615646
114971.268049
114920.957857
114870.68227
114820.445025
114770.245962
114720.084113
114669.960201
114619.86977
114569.8127
114519.79055
114469.80429
114419.854126
114369.939845
114320.06247
114270.223189
114220.421934
114170.65975
114120.936095
114071.248507
114021.595923
113971.981185
113922.407042
113872.872529
113823.374315
113773.909226
113724.478869
113675.083737
113625.722396
113576.397409
113527.111607
113477.863174
113428.649357
113379.47089
113330.331915
113281.233171
113232.172646
113183.149118
113134.160445
113085.205627
113036.286793
112987.407293
112938.570352
112889.775008
112841.018136
112792.296058
112743.605784
112694.94867
112646.327577
112597.7437
112549.197115
112500.688526
112452.217593
112403.785102
112355.391623
112307.035603
112258.715686
112210.432346
112162.18688
112113.980073
112065.811671
112017.681852
111969.590328
111921.535917
111873.52088
111825.547743
111777.614182
111729.717128
111681.85435
111634.025943
111586.234587
111538.481271
111490.764858
111443.084208
111395.439835
111347.832307
111300.259898
111252.721456
111205.215555
111157.741617
111110.30071
111062.893033
111015.520027
110968.184021
110920.885044
110873.620901
110826.389595
110779.191508
110732.027118
110684.895315
110637.795207
110590.727381
110543.693611
110496.702538
110449.749675
110402.827714
110355.944755
110309.097375
110262.285439
110215.517783
110168.794883
110122.108558
110075.4636
110028.863369
109982.295251
109935.759547
109889.268427
109842.81553
109796.391781
109750.006439
109703.668993
109657.374803
109611.116702
109564.893596
109518.706063
109472.552726
109426.432362
109380.346475
109334.295673
109288.276584
109242.286963
109196.32843
109150.403701
109104.51246
109058.651994
109012.823218
108967.024323
108921.254339
108875.520021
108829.826139
108784.173524
108738.561359
108692.980743
108647.463271
108601.987494
108556.53244
108511.11094
108465.726127
108420.372893
108375.050193
108329.768593
108284.521887
108239.304577
108194.118068
108148.961789
108103.831254
108058.726173
108013.648215
107968.591726
107923.553237
107878.537827
107833.541874
107788.559693
107743.588527
107698.626854
107653.670903
107639.018447
107609.425783
107639.543643
107609.089793
107641.432202
107608.977627
107638.329636
107608.613171
107638.641615
107608.418426
107641.561681
107608.344779
107639.066891
107608.093669
107635.62893
107607.874842
107641.037117
107607.809473
107639.822401
107607.926348
107635.307036
107607.781265
107636.52044
107607.741997
107642.434656
107607.921496
107637.962803
107607.795729
107634.00306
107607.649439
107638.538198
107607.658914
107641.645672
107607.862219
107635.444837
107607.735289
107634.888777
107607.696909
107640.656196
107607.943636
107637.892015
107607.807644
107636.293525
107607.627721
107638.504508
107607.632026
107637.641895
107607.776011
107639.564094
107607.626137
107638.824769
107607.474135
107637.359622
107607.699736
107639.251208
107607.525296
107639.847542
107607.260856
107642.802418
107607.154205
107643.702608
107607.041263
107641.769814
107606.786159
107643.850561
107606.532831
107645.709065
107606.471525
107646.315182
107606.052253
107647.612995
107605.61089
107648.234368
107605.221298
107647.247065
107604.788079
107648.095165
107604.296862
107649.465846
107603.877527
107649.563771
107603.658557
107650.490092
107603.156659
107650.24438
107602.744628
107650.88346
107602.442878
107654.531508
107602.045647
107652.555777
107601.664123
107653.587141
107601.427986
107655.061872
107601.376043
107654.465829
107601.077193
107655.561369
107600.955573
107657.558889
107600.910596
107656.866151
107600.703448
107659.396868
107600.537112
107659.528148
107600.48865
107660.625696
107600.571352
107663.03711
107600.460205
107662.899388
107600.453817
107661.798622
107600.546098
107659.526429
107600.437661
107664.181555
107600.333691
107665.478256
107600.309431
107660.111896
107600.401176
107662.493669
107600.338953
107666.932647
107600.440637
107663.36626
107600.697786
107663.729632
107600.542479
107663.501276
107600.328009
107665.503575
107600.229526
107664.181588
107600.436435
107662.893138
107600.330245
107667.273851
107600.276306
107662.273822
107600.187489
107661.685682
107600.261556
107664.319131
107600.130274
107663.794619
107600.110855
107661.767086
107600.26998
107663.988144
107600.136407
107663.15856
107599.969431
107660.970917
107599.887387
107662.918194
107600.09973
107660.353805
107599.979388
107662.295615
107599.846965
107664.029889
107599.724717
107660.415319
107599.754477
107663.513255
107599.622379
107663.323415
107599.617935
107664.652767
107599.548377
107660.072095
107599.344351
107666.062203
107599.149615
107660.04586
107599.024282
107667.719573
107599.08869
107666.185911
107598.860587
107664.087254
107598.567651
107670.924291
107598.287084
107663.416355
107598.22042
107667.860063
107597.915069
107671.961386
107599.975529
107661.478552
107597.353111
107659.28026
107596.978725
107649.94579
107600.250571
107662.710556
107603.046034
107710.566149
107618.797772
107705.233182
107628.49679
107697.738579
107616.316428
107741.1583
107628.030188
107653.976145
107624.224699
107716.108492
107622.19032
107757.855411
107643.310407
107716.166732
107644.707617
107655.855486
107739.265612
107622.917908
107696.630559
107623.001536
107706.411582
107631.934068
107700.010914
107630.144992
107697.810032
107626.336372
107730.721294
107638.121011
107694.389486
107632.764569
107703.966325
107625.65447
107675.124045
107738.137941
107647.356611
107729.667251
107627.526247
107770.112749
107657.094646
107708.056603
107653.471426
107725.337525
107647.993633
107747.420078
107657.937335
107711.121638
107653.192402
107731.796229
107651.474363
107743.699264
107658.544279
107732.376717
107662.903237
107738.184076
107668.216636
107740.699967
107668.755821
107742.881789
107672.661393
107742.004367
107674.208896
107753.825956
107681.61184
107757.022185
107688.190935
107757.843365
107689.621614
107766.706982
107693.385065
107767.100935
107694.712584
107774.515471
107698.51379
107782.842299
107703.862644
107782.856577
107706.769244
107782.451695
107705.993318
107796.870711
107715.088513
107793.630975
107718.453489
107792.972139
107717.513817
107805.494667
107725.418573
107802.060381
107728.194177
107811.871413
107734.106392
107812.589079
107736.918413
107821.858115
107744.19994
107823.977771
107749.042774
107829.258632
107752.979103
107838.188763
107760.24223
107837.098419
107762.165963
107842.61596
107763.649494
107852.805955
107773.405299
107853.170675
107778.255725
107865.117018
107786.460577
107862.209436
107787.30947
107868.828346
107790.029235
107889.753503
107805.546896
107880.314775
107806.828416
107888.503001
107809.389338
107897.558606
107816.368978
107900.403688
107821.567535
107914.347174
107831.911734
107917.057586
107839.316458
107920.792949
107842.055849
107922.170219
107844.114533
107941.629856
107856.169097
107951.326999
107870.88341
107952.929664
107875.479563
107962.859842
107881.087736
107968.218276
107885.683157
107975.079599
107893.053366
107983.979346
107901.839845
107996.417146
107913.470171
108000.15828
107923.72763
108039.730158
107955.183184
108026.699487
107952.449973
108015.053158
107964.699335
108029.169569
107952.333333
108043.799892
107958.230303
108043.908708
107968.373705
108046.291254
107979.74542
108054.258828
107985.286214
108071.328839
107994.278293
108083.337738
108006.900146
108077.948666
108007.416049
108097.490107
108017.774798
108109.173716
108030.142001
108109.131699
108037.022888
108131.679442
108048.683229
108160.308298
108075.332879
108142.155882
108070.540272
108127.833119
108093.10248
108163.448235
108093.826286
108183.772731
108098.150474
108173.850223
108095.544092
108188.927121
108122.728609
108203.327246
108117.647802
108211.67736
108135.762816
108222.888487
108135.589361
108260.732261
108168.579678
108274.021033
108188.05939
108222.897541
108209.623962
108279.673029
108182.858231
108275.248683
108197.704037
108293.327607
108218.284069
108310.938162
108227.595621
108273.967558
108283.119088
108392.486432
108324.182308
108280.07247
108374.329965
108394.317317
108285.033104
108315.150972
108300.196694
108401.050243
108340.966821
108440.132668
108346.955753
108407.401237
108348.515173
108428.868986
108401.337061
108565.183383
108495.703898
108399.325598
108436.09617
108544.866115
108506.810595
108402.124148
108450.788234
108536.558314
108462.331211
108485.213038
108458.010905
108543.153503
108539.924115
108528.402564
108548.078691
108623.241517
108505.893243
108524.801624
108588.413741
108616.730524
108623.251289
108590.210633
108642.712231
108692.725103
108565.506435
108604.732878
108583.953542
108703.994248
108706.359585
108724.186165
108603.130466
108645.281896
108653.062963
108743.541875
108754.200588
108795.273378
108698.060074
108716.207718
108756.07512
108782.982786
108767.67998
108790.669361
108717.032724
108769.649332
108815.794212
108808.101595
108874.465462
108794.873911
108836.478019
108865.83143
108911.955648
108852.089417
108811.250584
108863.701173
108858.705679
108873.529853
108925.783835
108947.724091
109008.150061
108904.23676
108886.707047
109007.299069
109022.36527
109059.793867
108962.557315
108997.540667
108996.878143
109032.825695
109087.82853
109113.893308
109032.674855
108984.428822
109046.31296
109025.717987
109146.447576
109122.942328
109061.176263
109046.520613
109187.659301
109213.903008
109185.574944
109136.686742
109185.699408
109096.152529
109258.608246
109280.198507
109264.724679
109227.115371
109178.985665
109162.416895
109145.910646
109276.73378
109313.795019
109290.125184
109235.397525
109213.795863
109323.624951
109355.152504
109414.784824
109407.731869
109410.826945
109301.393681
109300.53061
109281.560078
109456.135643
109484.747446
109512.415836
109452.6663
109361.591319
109340.676263
109537.209183
109575.616841
109549.211625
109496.708625
109427.118346
109390.388591
109568.24696
109616.32675
109618.94337
109599.204044
109540.280911
109486.868926
109558.761507
109476.210949
109589.290412
109529.657201
109569.523752
109522.428124
109580.670834
109544.03126
109608.273668
109623.447386
109571.506161
109582.701002
109654.357846
109613.648803
109625.340896
109635.036101
109736.476736
109657.062747
109716.465423
109685.545042
109699.972376
109707.351216
109789.584424
109720.710188
109800.644207
109750.150894
109910.830048
109831.700483
109837.74748
109819.810805
109879.753996
109886.079321
109896.9892
109841.325201
109871.893063
109862.587037
109902.355407
109883.027077
109935.476536
109908.387559
109951.717126
109982.326039
109964.124428
109970.131488
110007.514238
109976.788415
110013.731419
110019.166197
110062.721947
110024.004287
110089.524789