/*--------------------------------*- C++ -*----------------------------------*\
  =========                 |
  \\      /  F ield         | OpenFOAM: The Open Source CFD Toolbox
   \\    /   O peration     | Website:  https://openfoam.org
    \\  /    A nd           | Version:  6
     \\/     M anipulation  |
\*---------------------------------------------------------------------------*/
FoamFile
{
    version     2.0;
    format      ascii;
    class       volScalarField;
    location    "0.0005";
    object      O;
}
// * * * * * * * * * * * * * * * * * * * * * * * * * * * * * * * * * * * * * //

dimensions      [0 0 0 0 0 0 0];

internalField   nonuniform List<scalar> 
32000
(
1.38730252941e-05
1.38730268728e-05
1.38730259897e-05
1.38730254874e-05
1.38730245596e-05
1.38730239174e-05
1.38730231336e-05
1.38730223391e-05
1.3873021291e-05
1.38730204348e-05
1.38730195791e-05
1.38730183128e-05
1.38730162019e-05
1.38730147949e-05
1.3873013711e-05
1.38730130709e-05
1.3873012303e-05
1.38730114492e-05
1.3873010293e-05
1.38730086321e-05
1.38730073663e-05
1.38730065206e-05
1.38730052169e-05
1.38730037894e-05
1.38730023128e-05
1.38730006415e-05
1.38729990236e-05
1.38729975e-05
1.38729961539e-05
1.38729937363e-05
1.38729913492e-05
1.3872988906e-05
1.38729864257e-05
1.38729846219e-05
1.38729829892e-05
1.38729813017e-05
1.38729796307e-05
1.38729781147e-05
1.38729769787e-05
1.38729752252e-05
1.38729723239e-05
1.38729688035e-05
1.3872965148e-05
1.38729598459e-05
1.38729549066e-05
1.38729501059e-05
1.38729467269e-05
1.38729444948e-05
1.3872941898e-05
1.38729399909e-05
1.38729379835e-05
1.38729354482e-05
1.38729327189e-05
1.38729288011e-05
1.38729252321e-05
1.38729225544e-05
1.38729174125e-05
1.38729140969e-05
1.38729100879e-05
1.38729056489e-05
1.38729029363e-05
1.38729005326e-05
1.38728977818e-05
1.38728956015e-05
1.38728929984e-05
1.3872889385e-05
1.38728865004e-05
1.38728811348e-05
1.38728778926e-05
1.387287321e-05
1.38728692099e-05
1.38728652475e-05
1.38728619955e-05
1.38728588424e-05
1.38728536139e-05
1.38728477729e-05
1.38728425218e-05
1.38728340682e-05
1.3872828464e-05
1.38728220923e-05
1.38728181633e-05
1.38728133577e-05
1.38728106075e-05
1.38728081986e-05
1.38728049179e-05
1.38728028986e-05
1.3872798683e-05
1.38727940738e-05
1.38727887937e-05
1.38727832339e-05
1.38727721611e-05
1.38727589136e-05
1.38727501237e-05
1.38727414708e-05
1.38727347749e-05
1.38727303318e-05
1.3872726756e-05
1.3872723388e-05
1.38727205426e-05
1.38727174337e-05
1.38727152296e-05
1.38727125637e-05
1.3872708587e-05
1.38727037619e-05
1.38726997346e-05
1.38726926144e-05
1.3872682166e-05
1.38726752092e-05
1.38726694841e-05
1.38726653059e-05
1.38726609609e-05
1.38726558216e-05
1.38726507225e-05
1.38726466013e-05
1.3872642834e-05
1.38726392422e-05
1.38726317474e-05
1.38726206738e-05
1.38726134216e-05
1.38726088039e-05
1.38726044723e-05
1.38726015026e-05
1.38725990632e-05
1.38725972678e-05
1.38725933693e-05
1.3872590659e-05
1.38725891255e-05
1.38725875647e-05
1.3872585996e-05
1.38725846007e-05
1.38725831869e-05
1.38725809158e-05
1.38725781661e-05
1.38725748751e-05
1.38725685885e-05
1.38725591725e-05
1.38725541822e-05
1.38725503442e-05
1.38725408816e-05
1.38725298714e-05
1.38725111005e-05
1.38724951436e-05
1.38724842415e-05
1.38724791731e-05
1.387247625e-05
1.38724736576e-05
1.38724717416e-05
1.38724690942e-05
1.38724680932e-05
1.38724673223e-05
1.38724666339e-05
1.38724659079e-05
1.38724641129e-05
1.38724627401e-05
1.38724605719e-05
1.38724585764e-05
1.38724534986e-05
1.38724431154e-05
1.38724323459e-05
1.38724223384e-05
1.38724144574e-05
1.38724080599e-05
1.38724032563e-05
1.38723993713e-05
1.38723962227e-05
1.38723934396e-05
1.38723904715e-05
1.38723867657e-05
1.38723835995e-05
1.38723809746e-05
1.38723774711e-05
1.38723717266e-05
1.38723629856e-05
1.38723509912e-05
1.38723370545e-05
1.38723209128e-05
1.38723033794e-05
1.38722875396e-05
1.38722728842e-05
1.38722590019e-05
1.38722485783e-05
1.3872242963e-05
1.38722402668e-05
1.38722385754e-05
1.38722349028e-05
1.38722328042e-05
1.38722320094e-05
1.3872231723e-05
1.38722315017e-05
1.38722309949e-05
1.38722301484e-05
1.38722291654e-05
1.38722281471e-05
1.38722252548e-05
1.38722190342e-05
1.38722131697e-05
1.38722090991e-05
1.38722062295e-05
1.38721987988e-05
1.38721870492e-05
1.38721720006e-05
1.38721565292e-05
1.38721429303e-05
1.387213282e-05
1.38721255029e-05
1.38721195744e-05
1.38721138561e-05
1.38721081047e-05
1.38721025917e-05
1.38720977789e-05
1.38720940576e-05
1.38720907154e-05
1.38720876003e-05
1.38720841704e-05
1.38720782306e-05
1.38720693026e-05
1.38720576572e-05
1.38720433516e-05
1.3872026595e-05
1.38720076091e-05
1.38719892103e-05
1.38719752202e-05
1.38719535218e-05
1.38719431591e-05
1.38719346473e-05
1.38719267882e-05
1.38719199257e-05
1.38719123341e-05
1.38719056271e-05
1.38718992594e-05
1.38718951421e-05
1.38718922324e-05
1.38718905182e-05
1.38718883655e-05
1.38718819881e-05
1.38718761673e-05
1.38718722338e-05
1.38718704419e-05
1.38718639263e-05
1.38718524343e-05
1.38718406904e-05
1.38718293952e-05
1.38718175203e-05
1.38718050045e-05
1.38717912311e-05
1.38717769336e-05
1.38717638784e-05
1.38717522999e-05
1.38717417251e-05
1.38717317908e-05
1.38717218655e-05
1.38717116911e-05
1.3871699747e-05
1.38716876307e-05
1.38716773535e-05
1.38716700561e-05
1.38716646661e-05
1.38716591222e-05
1.38716531747e-05
1.38716463957e-05
1.38716289829e-05
1.38716191019e-05
1.3871609424e-05
1.38716017167e-05
1.38715911037e-05
1.38715715425e-05
1.38715534684e-05
1.38715379405e-05
1.38715251252e-05
1.38715145554e-05
1.38715053411e-05
1.38714971151e-05
1.38714903719e-05
1.38714847549e-05
1.38714789211e-05
1.38714741069e-05
1.38714685775e-05
1.38714620033e-05
1.38714546407e-05
1.38714441011e-05
1.38714326322e-05
1.38714188443e-05
1.38714037536e-05
1.38713872234e-05
1.38713709176e-05
1.38713546327e-05
1.38713392243e-05
1.38713230562e-05
1.38713060213e-05
1.38712880581e-05
1.38712685695e-05
1.38712490039e-05
1.38712280599e-05
1.38712101101e-05
1.38711958222e-05
1.38711826406e-05
1.38711708947e-05
1.38711589681e-05
1.38711447254e-05
1.3871129597e-05
1.38711153855e-05
1.38711061694e-05
1.38711000767e-05
1.38710957697e-05
1.38710923362e-05
1.38710887749e-05
1.38710843129e-05
1.38710779609e-05
1.38710694145e-05
1.3871059169e-05
1.38710484124e-05
1.38710383763e-05
1.38710290708e-05
1.38710198178e-05
1.38710105599e-05
1.38709997575e-05
1.38709879816e-05
1.38709756121e-05
1.38709596159e-05
1.38709447322e-05
1.38709298287e-05
1.38709156944e-05
1.38709016853e-05
1.38708874288e-05
1.38708723983e-05
1.3870855685e-05
1.38708367339e-05
1.38708161765e-05
1.38707969687e-05
1.38707802348e-05
1.38707662416e-05
1.38707556013e-05
1.38707471389e-05
1.38707376376e-05
1.38707261426e-05
1.3870711746e-05
1.38706941861e-05
1.38706731633e-05
1.3870649138e-05
1.38706221268e-05
1.38705936827e-05
1.38705629587e-05
1.38705339077e-05
1.38705098888e-05
1.38704912208e-05
1.38704772135e-05
1.38704665769e-05
1.38704566881e-05
1.38704457827e-05
1.38704320696e-05
1.38704164396e-05
1.38704000244e-05
1.38703838832e-05
1.38703680593e-05
1.38703516421e-05
1.38703334071e-05
1.38703128906e-05
1.38702913118e-05
1.38702711409e-05
1.38702529037e-05
1.38702377267e-05
1.38702260043e-05
1.38702161845e-05
1.38702085503e-05
1.38702040689e-05
1.38701994787e-05
1.38701944328e-05
1.38701802258e-05
1.38701691001e-05
1.3870162794e-05
1.3870159096e-05
1.38701506826e-05
1.38701372971e-05
1.38701230513e-05
1.38701067239e-05
1.38700881108e-05
1.38700669431e-05
1.38700423977e-05
1.38700134666e-05
1.38699821014e-05
1.3869953147e-05
1.38699304722e-05
1.3869909991e-05
1.38698875501e-05
1.38698635509e-05
1.38698381789e-05
1.38698133076e-05
1.38697920492e-05
1.38697748171e-05
1.38697608542e-05
1.38697489973e-05
1.38697384886e-05
1.3869728381e-05
1.38697184328e-05
1.38697085937e-05
1.38696986609e-05
1.38696883068e-05
1.38696759342e-05
1.38696615963e-05
1.38696457665e-05
1.38696278531e-05
1.38696077972e-05
1.38695855823e-05
1.38695607308e-05
1.38695346695e-05
1.38695053704e-05
1.38694775713e-05
1.38694507153e-05
1.38694252871e-05
1.38694009615e-05
1.38693774179e-05
1.38693540897e-05
1.38693304396e-05
1.38693072261e-05
1.3869285585e-05
1.38692670054e-05
1.38692516614e-05
1.38692376822e-05
1.3869225242e-05
1.38692115342e-05
1.38691924476e-05
1.38691717514e-05
1.38691489999e-05
1.38691240699e-05
1.38690977764e-05
1.38690698918e-05
1.38690403795e-05
1.38690114804e-05
1.38689765259e-05
1.38689313597e-05
1.38688980779e-05
1.38688717915e-05
1.38688499715e-05
1.38688320482e-05
1.38688175875e-05
1.38688059715e-05
1.38687963487e-05
1.3868787784e-05
1.38687796112e-05
1.3868771859e-05
1.38687634648e-05
1.38687525852e-05
1.38687389527e-05
1.38687232403e-05
1.38687068351e-05
1.38686925276e-05
1.3868681597e-05
1.38686735217e-05
1.38686642428e-05
1.38686561867e-05
1.38686439839e-05
1.38686272501e-05
1.38686019898e-05
1.3868572256e-05
1.38685394232e-05
1.38685084605e-05
1.38684871425e-05
1.38684682244e-05
1.3868432823e-05
1.38683723848e-05
1.38683140525e-05
1.3868281654e-05
1.38682594613e-05
1.38682383903e-05
1.38682120279e-05
1.38681731753e-05
1.38681587021e-05
1.38681462721e-05
1.38681311515e-05
1.38681137148e-05
1.38680921971e-05
1.38680680661e-05
1.38680435989e-05
1.38680180492e-05
1.38679881711e-05
1.38679557133e-05
1.38679250815e-05
1.38678993724e-05
1.38678792868e-05
1.38678631439e-05
1.38678476348e-05
1.38678328542e-05
1.38678177703e-05
1.38678007234e-05
1.38677833913e-05
1.38677643361e-05
1.38677408774e-05
1.38677141203e-05
1.38676851201e-05
1.38676575938e-05
1.38676307148e-05
1.38675897129e-05
1.38675649944e-05
1.38675347303e-05
1.38675181915e-05
1.38674911146e-05
1.38674678565e-05
1.38674320962e-05
1.38674062524e-05
1.38673681336e-05
1.38673518994e-05
1.38673239979e-05
1.38673065534e-05
1.38672864745e-05
1.38672633049e-05
1.38672437502e-05
1.38672182891e-05
1.38671921252e-05
1.38671652743e-05
1.38671375839e-05
1.38671117236e-05
1.3867086624e-05
1.38670643894e-05
1.38670446575e-05
1.38670207405e-05
1.38669815789e-05
1.38669639371e-05
1.38669331573e-05
1.38669033887e-05
1.38668826653e-05
1.38668624148e-05
1.38668386731e-05
1.38668119225e-05
1.38667849693e-05
1.38667585117e-05
1.38667349936e-05
1.38667179512e-05
1.38667066286e-05
1.38666747232e-05
1.38666184134e-05
1.38665592618e-05
1.38665059223e-05
1.38664660134e-05
1.38664429663e-05
1.38664273665e-05
1.38664097849e-05
1.38663833024e-05
1.3866361536e-05
1.38663236051e-05
1.38662971346e-05
1.38662766085e-05
1.38662595816e-05
1.38662417185e-05
1.38662226194e-05
1.3866198423e-05
1.38661726448e-05
1.3866148699e-05
1.38661260504e-05
1.38661135284e-05
1.38660827755e-05
1.38660570032e-05
1.38660235855e-05
1.3865989282e-05
1.38659551027e-05
1.38659157193e-05
1.38658721046e-05
1.38658296258e-05
1.38657871675e-05
1.38657476327e-05
1.38657128112e-05
1.38656827187e-05
1.3865657563e-05
1.38656337255e-05
1.386560417e-05
1.38655720352e-05
1.38655512226e-05
1.38655320358e-05
1.38655029662e-05
1.3865471008e-05
1.38654322902e-05
1.38653963436e-05
1.38653746184e-05
1.38653583819e-05
1.38653374526e-05
1.38653211755e-05
1.38652953118e-05
1.38652718276e-05
1.38652264828e-05
1.38651849659e-05
1.38651525775e-05
1.38651202236e-05
1.38650821237e-05
1.38650404418e-05
1.38650005991e-05
1.38649702825e-05
1.38649433811e-05
1.38649118876e-05
1.38648758454e-05
1.38648367848e-05
1.38647983861e-05
1.38647670113e-05
1.38647462285e-05
1.38647312592e-05
1.38647113698e-05
1.38646856247e-05
1.38646662332e-05
1.38646287112e-05
1.38645876224e-05
1.38645460721e-05
1.38645114449e-05
1.38644794738e-05
1.38644456322e-05
1.38644059374e-05
1.38643578371e-05
1.38643095224e-05
1.38642733837e-05
1.3864252938e-05
1.3864241735e-05
1.38642204151e-05
1.38641898239e-05
1.38641617082e-05
1.38641408257e-05
1.38641193051e-05
1.38640773105e-05
1.38640391267e-05
1.38640106665e-05
1.38639871666e-05
1.38639685425e-05
1.38639506897e-05
1.38639295501e-05
1.38639127471e-05
1.38638956161e-05
1.38638719854e-05
1.38638292849e-05
1.38637900975e-05
1.38637563986e-05
1.38637218895e-05
1.38636843128e-05
1.38636417152e-05
1.38635965096e-05
1.38635478225e-05
1.38634978826e-05
1.38634498736e-05
1.38634070514e-05
1.38633685662e-05
1.38633314537e-05
1.3863295417e-05
1.38632579721e-05
1.38632166556e-05
1.38631725241e-05
1.38631317901e-05
1.38630966907e-05
1.38630650284e-05
1.38630340721e-05
1.38630013776e-05
1.38629669903e-05
1.38629319078e-05
1.38628952897e-05
1.38628568306e-05
1.38628184387e-05
1.3862783888e-05
1.38627531216e-05
1.3862723235e-05
1.38626917938e-05
1.38626571589e-05
1.38626187146e-05
1.3862576557e-05
1.38625335874e-05
1.38624902908e-05
1.38624456316e-05
1.38624032352e-05
1.38623641133e-05
1.38623259814e-05
1.38622849589e-05
1.38622422698e-05
1.38621975071e-05
1.3862150195e-05
1.38620981728e-05
1.38620433788e-05
1.3861987728e-05
1.38619398756e-05
1.38619005248e-05
1.38618718067e-05
1.38618504492e-05
1.38618309698e-05
1.38618065795e-05
1.38617754387e-05
1.38617444227e-05
1.38617155365e-05
1.38616932198e-05
1.38616713943e-05
1.38616459952e-05
1.38616122837e-05
1.3861577714e-05
1.38615483499e-05
1.38615300403e-05
1.38615111612e-05
1.38614951107e-05
1.38614724503e-05
1.38614383071e-05
1.38613841008e-05
1.38613318852e-05
1.38612927663e-05
1.3861264016e-05
1.38612367778e-05
1.38612058141e-05
1.38611725826e-05
1.38611362223e-05
1.38610982819e-05
1.38610605893e-05
1.38610176776e-05
1.38609696891e-05
1.38609182591e-05
1.38608664751e-05
1.38608125856e-05
1.38607596577e-05
1.38607090769e-05
1.38606591206e-05
1.38606128786e-05
1.38605705991e-05
1.38605296165e-05
1.3860487824e-05
1.38604440926e-05
1.38603965302e-05
1.38603456654e-05
1.386029258e-05
1.38602392707e-05
1.3860187544e-05
1.38601375481e-05
1.38600885588e-05
1.3860041441e-05
1.38599956343e-05
1.38599563594e-05
1.38599187516e-05
1.38598830784e-05
1.38598470022e-05
1.38598086469e-05
1.38597700431e-05
1.38597330315e-05
1.38596993823e-05
1.38596680486e-05
1.3859638144e-05
1.38596074555e-05
1.38595758394e-05
1.38595439845e-05
1.38595122659e-05
1.38594801614e-05
1.38594472299e-05
1.3859413688e-05
1.38593776345e-05
1.38593365717e-05
1.38592934104e-05
1.38592494844e-05
1.38591999877e-05
1.38591462267e-05
1.38590870898e-05
1.38590291679e-05
1.38589730687e-05
1.38589216016e-05
1.38588737713e-05
1.38588275447e-05
1.38587814307e-05
1.38587351142e-05
1.38586882549e-05
1.38586403005e-05
1.38585915186e-05
1.38585425067e-05
1.38584946037e-05
1.38584491034e-05
1.385840658e-05
1.38583656031e-05
1.38583255664e-05
1.38582880188e-05
1.38582469616e-05
1.38582044848e-05
1.38581615384e-05
1.38581180287e-05
1.38580736601e-05
1.38580275375e-05
1.38579824693e-05
1.38579388067e-05
1.38578999787e-05
1.38578587138e-05
1.38578157077e-05
1.38577707402e-05
1.38577255841e-05
1.38576822732e-05
1.38576428313e-05
1.38576067497e-05
1.38575718237e-05
1.38575360205e-05
1.38574990099e-05
1.38574601317e-05
1.38574177736e-05
1.3857371679e-05
1.38573191243e-05
1.38572603219e-05
1.38571975771e-05
1.38571324621e-05
1.38570686427e-05
1.38570112222e-05
1.38569566778e-05
1.38569050972e-05
1.385685674e-05
1.3856810847e-05
1.38567655844e-05
1.38567210993e-05
1.38566781836e-05
1.38566375805e-05
1.38565993e-05
1.38565629115e-05
1.38565274038e-05
1.38564913236e-05
1.38564534057e-05
1.38564131013e-05
1.38563699183e-05
1.38563238134e-05
1.3856275476e-05
1.38562261019e-05
1.38561770237e-05
1.38561292401e-05
1.38560817402e-05
1.38560327502e-05
1.38559800785e-05
1.38559213817e-05
1.38558552299e-05
1.38557802099e-05
1.38557010621e-05
1.38556205346e-05
1.38555421283e-05
1.38554675081e-05
1.38553912419e-05
1.3855315104e-05
1.38552450365e-05
1.38551838549e-05
1.38551325051e-05
1.3855091352e-05
1.38550563347e-05
1.38550239734e-05
1.38549924899e-05
1.38549601924e-05
1.38549266092e-05
1.38548914092e-05
1.38548538172e-05
1.3854815645e-05
1.38547807759e-05
1.38547505421e-05
1.38547234295e-05
1.3854697055e-05
1.38546699168e-05
1.38546416051e-05
1.38546120648e-05
1.38545814015e-05
1.38545493233e-05
1.38545145208e-05
1.38544759359e-05
1.38544360088e-05
1.38543960733e-05
1.3854356172e-05
1.3854314999e-05
1.38542696611e-05
1.38542178121e-05
1.38541575677e-05
1.38540877929e-05
1.3854007508e-05
1.38539181806e-05
1.38538240797e-05
1.38537331298e-05
1.38536510033e-05
1.38535807584e-05
1.38535159922e-05
1.38534540508e-05
1.38533963913e-05
1.38533396374e-05
1.38532834042e-05
1.38532247047e-05
1.38531712827e-05
1.38531235842e-05
1.38530817367e-05
1.38530424044e-05
1.38530076698e-05
1.38529818605e-05
1.38529639156e-05
1.38529500332e-05
1.38529268572e-05
1.38528847661e-05
1.38528094094e-05
1.38527183405e-05
1.38526138349e-05
1.38525141622e-05
1.38524280346e-05
1.38523660111e-05
1.3852319042e-05
1.38522890859e-05
1.38522701812e-05
1.38522611802e-05
1.3852240415e-05
1.38522109463e-05
1.38521701019e-05
1.38521206578e-05
1.38520729007e-05
1.38520262017e-05
1.3851982243e-05
1.38519424497e-05
1.3851904486e-05
1.38518656612e-05
1.38518230256e-05
1.38517744322e-05
1.38517183745e-05
1.38516536246e-05
1.38515801283e-05
1.38514985745e-05
1.38514098411e-05
1.38513147179e-05
1.38512138165e-05
1.38511098218e-05
1.3851009591e-05
1.38509190917e-05
1.38508390595e-05
1.38507689744e-05
1.38507060602e-05
1.38506519329e-05
1.38506021746e-05
1.38505540701e-05
1.38505073118e-05
1.38504617387e-05
1.38504159979e-05
1.38503696973e-05
1.38503225731e-05
1.38502772239e-05
1.38502328838e-05
1.3850189804e-05
1.38501476675e-05
1.38501059302e-05
1.38500638811e-05
1.38500210222e-05
1.38499769682e-05
1.38499312215e-05
1.3849883528e-05
1.3849837356e-05
1.38497920029e-05
1.38497444776e-05
1.38496942248e-05
1.38496385762e-05
1.38495754033e-05
1.38495058465e-05
1.38494268788e-05
1.38493420259e-05
1.38492526407e-05
1.38491608389e-05
1.3849070502e-05
1.38489861036e-05
1.38489144837e-05
1.38488541704e-05
1.38487981071e-05
1.3848745613e-05
1.38486946221e-05
1.38486440109e-05
1.38485931148e-05
1.38485422425e-05
1.38484919859e-05
1.38484428002e-05
1.38483948189e-05
1.38483480498e-05
1.38483016995e-05
1.38482552014e-05
1.38482071588e-05
1.38481564327e-05
1.38481022178e-05
1.38480438703e-05
1.38479810196e-05
1.38479136824e-05
1.38478420315e-05
1.38477663529e-05
1.38476866616e-05
1.3847603214e-05
1.38475170095e-05
1.38474298316e-05
1.38473427361e-05
1.38472559742e-05
1.38471705767e-05
1.38470893261e-05
1.38470134217e-05
1.38469431284e-05
1.38468764228e-05
1.38468135502e-05
1.38467528615e-05
1.38466916426e-05
1.38466307261e-05
1.38465784545e-05
1.38465380911e-05
1.38465086265e-05
1.3846485199e-05
1.38464212267e-05
1.38463883571e-05
1.3846358113e-05
1.38463070802e-05
1.38462503301e-05
1.38461784216e-05
1.38461029233e-05
1.38460436852e-05
1.38460104366e-05
1.38459878261e-05
1.38459182148e-05
1.38458490741e-05
1.38458225835e-05
1.3845778069e-05
1.38456857463e-05
1.3845618896e-05
1.38455663102e-05
1.38455030614e-05
1.38454138603e-05
1.38453524276e-05
1.38452725138e-05
1.38451992569e-05
1.38451330458e-05
1.38450600734e-05
1.3844992213e-05
1.38449275094e-05
1.38448621909e-05
1.38447994907e-05
1.38447361014e-05
1.38446740776e-05
1.38446122092e-05
1.38445491262e-05
1.38444836342e-05
1.384441402e-05
1.38443395569e-05
1.38442584986e-05
1.3844169923e-05
1.38440734593e-05
1.38439692501e-05
1.38438576384e-05
1.38437408794e-05
1.38436232091e-05
1.38435117311e-05
1.38434074941e-05
1.38433134128e-05
1.3843227657e-05
1.38431490895e-05
1.38430699051e-05
1.38429940595e-05
1.38429197332e-05
1.38428476773e-05
1.38427776812e-05
1.38427115153e-05
1.38426465852e-05
1.38425889763e-05
1.38425265397e-05
1.38424665021e-05
1.38424103693e-05
1.38423503321e-05
1.38422916602e-05
1.38422395159e-05
1.38421818612e-05
1.38421242975e-05
1.38420637714e-05
1.38420035171e-05
1.38419418833e-05
1.38418789935e-05
1.38418133116e-05
1.38417528473e-05
1.3841695873e-05
1.38416381385e-05
1.38415823015e-05
1.38415256842e-05
1.38414702252e-05
1.38414170756e-05
1.3841361102e-05
1.38413067792e-05
1.3841253203e-05
1.38411996891e-05
1.38411461278e-05
1.3841092542e-05
1.38410382422e-05
1.38409820447e-05
1.38409230729e-05
1.38408595571e-05
1.38407910709e-05
1.38407185623e-05
1.38406439002e-05
1.38405684013e-05
1.38404924702e-05
1.38404154893e-05
1.38403363842e-05
1.38402522922e-05
1.3840162067e-05
1.38400633011e-05
1.38399549876e-05
1.38398384727e-05
1.3839717653e-05
1.38395970365e-05
1.38394814408e-05
1.38393742109e-05
1.38392759183e-05
1.38391847333e-05
1.38390982631e-05
1.38390148574e-05
1.38389334093e-05
1.38388532178e-05
1.38387734749e-05
1.38386925553e-05
1.38386175461e-05
1.3838548847e-05
1.38384610472e-05
1.38383804808e-05
1.3838297729e-05
1.38382165731e-05
1.38381357441e-05
1.38380568679e-05
1.38379783853e-05
1.38379016787e-05
1.38378277217e-05
1.38377563493e-05
1.38376846911e-05
1.38376077448e-05
1.3837523809e-05
1.38374367292e-05
1.38373469519e-05
1.3837252066e-05
1.38371556626e-05
1.38370675588e-05
1.38369750253e-05
1.38368839988e-05
1.38367961121e-05
1.38367135242e-05
1.38366340763e-05
1.38365531669e-05
1.38364664646e-05
1.38363719769e-05
1.38362688366e-05
1.38361615871e-05
1.38360544245e-05
1.38359513209e-05
1.38358621642e-05
1.38357711526e-05
1.38356824514e-05
1.3835597149e-05
1.38355146377e-05
1.38354367501e-05
1.383536353e-05
1.38352976388e-05
1.38352373001e-05
1.38351802664e-05
1.38351239624e-05
1.38350667409e-05
1.38350084607e-05
1.38349484218e-05
1.38348865647e-05
1.38348238591e-05
1.38347605366e-05
1.38346966989e-05
1.38346324886e-05
1.38345678952e-05
1.38345033028e-05
1.38344387338e-05
1.38343747765e-05
1.38343124449e-05
1.38342533589e-05
1.38341997979e-05
1.3834154917e-05
1.38341213565e-05
1.38340978301e-05
1.38340637711e-05
1.38339894885e-05
1.38338843211e-05
1.38337738059e-05
1.38336670111e-05
1.38335626033e-05
1.38334623547e-05
1.3833363188e-05
1.38332593487e-05
1.38331467833e-05
1.38330237811e-05
1.38328910582e-05
1.38327502236e-05
1.38326017474e-05
1.38324474511e-05
1.38322937372e-05
1.38321593858e-05
1.38320212703e-05
1.38318854838e-05
1.38317520121e-05
1.38316260787e-05
1.38315091885e-05
1.38314017237e-05
1.38313037305e-05
1.3831212912e-05
1.38311270561e-05
1.38310441647e-05
1.38309623984e-05
1.38308807525e-05
1.38307992512e-05
1.3830718416e-05
1.38306373381e-05
1.38305573336e-05
1.38304791859e-05
1.3830399896e-05
1.383032412e-05
1.3830250552e-05
1.38301770714e-05
1.38301075084e-05
1.38300404036e-05
1.3829974894e-05
1.38299104864e-05
1.3829851042e-05
1.38297930548e-05
1.3829733745e-05
1.38296774563e-05
1.3829621845e-05
1.38295714378e-05
1.38295168054e-05
1.38294594921e-05
1.38294068696e-05
1.38293497902e-05
1.38292955202e-05
1.38292368456e-05
1.38291750661e-05
1.3829109594e-05
1.38290402354e-05
1.3828965896e-05
1.38288863498e-05
1.38288024875e-05
1.38287152384e-05
1.38286239263e-05
1.38285257632e-05
1.38284318505e-05
1.38283261233e-05
1.38282039072e-05
1.38280640445e-05
1.38279073673e-05
1.38277394384e-05
1.38275591609e-05
1.38273709442e-05
1.38271813979e-05
1.38270147182e-05
1.38268543018e-05
1.38267085262e-05
1.3826579094e-05
1.38264631962e-05
1.38263580662e-05
1.38262606534e-05
1.38261663272e-05
1.38260721641e-05
1.38259777142e-05
1.382588249e-05
1.38257863637e-05
1.38256896164e-05
1.38255916885e-05
1.38254922898e-05
1.38253918679e-05
1.38252915481e-05
1.38251927113e-05
1.38250966578e-05
1.38250042717e-05
1.38249156257e-05
1.38248288862e-05
1.38247416218e-05
1.38246628906e-05
1.38245799372e-05
1.38244963931e-05
1.38244128536e-05
1.38243289295e-05
1.3824244216e-05
1.38241569621e-05
1.38240667612e-05
1.38239719468e-05
1.38238710915e-05
1.38237623812e-05
1.38236436004e-05
1.38235129328e-05
1.38233696466e-05
1.38232114679e-05
1.38230553248e-05
1.38229005959e-05
1.38227324724e-05
1.38225700379e-05
1.38224184066e-05
1.38222800896e-05
1.38221544852e-05
1.38220430285e-05
1.38219407136e-05
1.38218445881e-05
1.38217527781e-05
1.38216627994e-05
1.38215720739e-05
1.3821480717e-05
1.38213919861e-05
1.38213004878e-05
1.38212093755e-05
1.38211210382e-05
1.38210351195e-05
1.3820962501e-05
1.38209001885e-05
1.38208586406e-05
1.38208296507e-05
1.38208080765e-05
1.38207543195e-05
1.38206654896e-05
1.38205698701e-05
1.38204792769e-05
1.38203776232e-05
1.3820270005e-05
1.38201676606e-05
1.38200464331e-05
1.38199075197e-05
1.38197490658e-05
1.3819573856e-05
1.38193898991e-05
1.38192055614e-05
1.38190389334e-05
1.38188952803e-05
1.38187726103e-05
1.38186775458e-05
1.38185935953e-05
1.38185293461e-05
1.38184844633e-05
1.38184627639e-05
1.38184141525e-05
1.38183367426e-05
1.38182307184e-05
1.38181191135e-05
1.38180007235e-05
1.3817905634e-05
1.38178125006e-05
1.38177196736e-05
1.38176314378e-05
1.38175464802e-05
1.3817462633e-05
1.38173806594e-05
1.38173014748e-05
1.38172247257e-05
1.38171491723e-05
1.38170723719e-05
1.38169925153e-05
1.38169064636e-05
1.38168122908e-05
1.38167077029e-05
1.38165908985e-05
1.38164596408e-05
1.38163120127e-05
1.38161478466e-05
1.38159693109e-05
1.38157824057e-05
1.3815596431e-05
1.38154209889e-05
1.381526402e-05
1.38151288191e-05
1.38150061712e-05
1.38148890032e-05
1.38147752001e-05
1.38146574629e-05
1.38145333532e-05
1.38144012933e-05
1.38142660118e-05
1.38141298394e-05
1.38139996017e-05
1.38138787065e-05
1.3813769994e-05
1.38136708824e-05
1.38135770476e-05
1.38134869771e-05
1.38133974179e-05
1.38133071859e-05
1.38132153587e-05
1.38131213593e-05
1.38130255516e-05
1.3812926326e-05
1.38128227916e-05
1.38127110461e-05
1.38125917681e-05
1.38124612947e-05
1.3812325267e-05
1.38121693847e-05
1.38120092841e-05
1.38118440323e-05
1.38116784591e-05
1.38115145309e-05
1.38113548316e-05
1.38112010424e-05
1.38110542369e-05
1.38109134137e-05
1.38107772351e-05
1.38106441408e-05
1.38105122244e-05
1.38103808218e-05
1.38102491352e-05
1.38101173152e-05
1.38099860167e-05
1.38098563637e-05
1.38097285577e-05
1.38095956189e-05
1.3809471301e-05
1.38093582529e-05
1.38092363419e-05
1.38091142186e-05
1.38089882811e-05
1.38088603044e-05
1.38087311747e-05
1.38086036666e-05
1.38084829471e-05
1.38083710277e-05
1.38082664239e-05
1.38081666656e-05
1.38080655023e-05
1.38079579957e-05
1.38078395261e-05
1.38077162087e-05
1.38075992778e-05
1.380747382e-05
1.38073510801e-05
1.38072303413e-05
1.38071093144e-05
1.3806987713e-05
1.38068624393e-05
1.38067336946e-05
1.38066029287e-05
1.38064655509e-05
1.38063246032e-05
1.38061748736e-05
1.38060201024e-05
1.38058580186e-05
1.38056875733e-05
1.38055057499e-05
1.38053183521e-05
1.3805126032e-05
1.38049329783e-05
1.38047424141e-05
1.38045625114e-05
1.38043947714e-05
1.38042391484e-05
1.38040923103e-05
1.38039400345e-05
1.38037873879e-05
1.3803629721e-05
1.3803480469e-05
1.38033406887e-05
1.38032269036e-05
1.38031200817e-05
1.38030218403e-05
1.38029271491e-05
1.38028385685e-05
1.38027461603e-05
1.38026434788e-05
1.38025332179e-05
1.38024164958e-05
1.3802296003e-05
1.38021737088e-05
1.38020499051e-05
1.38019255984e-05
1.38018010937e-05
1.38016779716e-05
1.38015590926e-05
1.38014450596e-05
1.38013347019e-05
1.38012390479e-05
1.38011540216e-05
1.38010700357e-05
1.38009857519e-05
1.38009010228e-05
1.38008157409e-05
1.38007273178e-05
1.38006342499e-05
1.3800534195e-05
1.38004251415e-05
1.38003054983e-05
1.38001727033e-05
1.38000253278e-05
1.37998634855e-05
1.37996880343e-05
1.37994988854e-05
1.37992962772e-05
1.37990826552e-05
1.37988609031e-05
1.3798638445e-05
1.37984273292e-05
1.37981964916e-05
1.37979625716e-05
1.3797734541e-05
1.3797511456e-05
1.37972979033e-05
1.37970958788e-05
1.37968915843e-05
1.37966872894e-05
1.37964814538e-05
1.37962884833e-05
1.37961107741e-05
1.37959509861e-05
1.37958275864e-05
1.37957590274e-05
1.37956919203e-05
1.37955046641e-05
1.37953496482e-05
1.37952884185e-05
1.37952079863e-05
1.37950667112e-05
1.37948984729e-05
1.37947117324e-05
1.37945266794e-05
1.37943710269e-05
1.37942779825e-05
1.37942156753e-05
1.37941505456e-05
1.37939974811e-05
1.37939278898e-05
1.37938544291e-05
1.37936943108e-05
1.37935454958e-05
1.37934410999e-05
1.37933544086e-05
1.37932331705e-05
1.37930965546e-05
1.37929777999e-05
1.37928115182e-05
1.37926232133e-05
1.37924026603e-05
1.37921577882e-05
1.37919046811e-05
1.37916584061e-05
1.37914184718e-05
1.37911863268e-05
1.37909670106e-05
1.37907718192e-05
1.37905921247e-05
1.37904316628e-05
1.37902792936e-05
1.37901397647e-05
1.37900146626e-05
1.37898978451e-05
1.37898058907e-05
1.37897194489e-05
1.37896320974e-05
1.37895527245e-05
1.37894631699e-05
1.37893880275e-05
1.3789308736e-05
1.37892325981e-05
1.37891250166e-05
1.37889916335e-05
1.37888349956e-05
1.37886580983e-05
1.378848298e-05
1.37883442629e-05
1.37882283991e-05
1.3788127494e-05
1.37880303189e-05
1.37879241098e-05
1.37878022354e-05
1.37876741025e-05
1.37875528124e-05
1.37874437001e-05
1.37873378736e-05
1.37872201768e-05
1.37870781302e-05
1.37869082293e-05
1.37867196963e-05
1.37865151042e-05
1.37862972134e-05
1.37860771963e-05
1.37858693625e-05
1.37856682512e-05
1.37854897816e-05
1.37852969634e-05
1.37851073045e-05
1.3784941796e-05
1.37847958357e-05
1.37846509854e-05
1.3784495126e-05
1.37843341861e-05
1.37841628312e-05
1.37839892272e-05
1.37838151784e-05
1.37836358068e-05
1.37834489892e-05
1.37832614308e-05
1.37830755969e-05
1.37828868496e-05
1.37826771133e-05
1.37824654245e-05
1.37822433152e-05
1.37820005883e-05
1.37817589179e-05
1.37815299228e-05
1.37813112959e-05
1.37811097163e-05
1.37809152944e-05
1.3780725682e-05
1.37805349142e-05
1.37803431488e-05
1.37801466608e-05
1.37799532336e-05
1.3779756826e-05
1.37795709874e-05
1.37793911058e-05
1.37792158368e-05
1.37790742091e-05
1.37789134867e-05
1.37787547572e-05
1.37785950315e-05
1.3778435593e-05
1.37782785221e-05
1.37781252001e-05
1.37779760575e-05
1.3777830271e-05
1.37776860314e-05
1.37775401521e-05
1.3777391127e-05
1.37772388498e-05
1.37770832004e-05
1.37769248006e-05
1.37767638901e-05
1.37766001866e-05
1.37764322689e-05
1.37762617746e-05
1.37760894629e-05
1.3775915998e-05
1.37757419314e-05
1.37755671209e-05
1.37753918047e-05
1.37752164492e-05
1.37750405829e-05
1.37748619633e-05
1.37746795312e-05
1.37744946179e-05
1.37743080833e-05
1.37741182842e-05
1.37739245881e-05
1.37737257215e-05
1.37735212668e-05
1.37733111341e-05
1.37730973681e-05
1.37728818432e-05
1.37726646378e-05
1.37724484143e-05
1.37722327887e-05
1.37720183933e-05
1.37718054888e-05
1.37715921282e-05
1.3771370878e-05
1.37711458315e-05
1.37709132359e-05
1.37706703078e-05
1.37704185663e-05
1.37701543128e-05
1.37698811363e-05
1.37696090002e-05
1.3769342775e-05
1.37690879068e-05