/*--------------------------------*- C++ -*----------------------------------*\
  =========                 |
  \\      /  F ield         | OpenFOAM: The Open Source CFD Toolbox
   \\    /   O peration     | Website:  https://openfoam.org
    \\  /    A nd           | Version:  6
     \\/     M anipulation  |
\*---------------------------------------------------------------------------*/
FoamFile
{
    version     2.0;
    format      ascii;
    class       volScalarField;
    location    "0.0005";
    object      O2;
}
// * * * * * * * * * * * * * * * * * * * * * * * * * * * * * * * * * * * * * //

dimensions      [0 0 0 0 0 0 0];

internalField   nonuniform List<scalar> 
32000
(
0.000641157507032
0.000641157316458
0.000641157156148
0.000641156993016
0.000641156742901
0.000641156549981
0.000641156325908
0.000641156028563
0.000641155691826
0.000641155410816
0.000641155073565
0.00064115471745
0.000641154105312
0.000641153612431
0.000641153106485
0.000641152736832
0.0006411524703
0.000641152018411
0.000641151498152
0.00064115096837
0.000641150347498
0.000641149704582
0.000641149247456
0.000641148777109
0.000641148131751
0.000641147368372
0.000641146724604
0.000641145891734
0.000641145060482
0.000641144156922
0.0006411434141
0.000641142501795
0.000641141437704
0.000641140637751
0.0006411396738
0.000641138926178
0.000641138233427
0.000641137100791
0.000641136208185
0.000641135561371
0.000641134606123
0.000641133252378
0.000641131912351
0.000641129885998
0.000641128038225
0.000641126314108
0.000641125104995
0.000641123995315
0.000641122406975
0.000641121380781
0.000641120549594
0.000641119334401
0.000641118043526
0.000641116609738
0.000641115185839
0.000641113984847
0.000641111424074
0.000641109650206
0.000641107846775
0.000641106096374
0.000641104997301
0.000641103533412
0.000641101509036
0.000641100317088
0.000641099412609
0.000641098023828
0.000641096544208
0.000641093479784
0.000641091697385
0.00064108950369
0.000641087799633
0.000641085969581
0.000641084510585
0.000641083300811
0.000641081185591
0.000641078664691
0.000641076409216
0.000641072516024
0.000641070125159
0.000641067691681
0.000641066005811
0.000641063642624
0.00064106228964
0.000641060890497
0.000641058387078
0.000641056965016
0.00064105481435
0.000641052990465
0.000641051047412
0.000641048745297
0.00064104392713
0.000641038178542
0.000641034457757
0.000641031040271
0.000641028668262
0.000641027097749
0.000641025492818
0.000641023590209
0.000641021330335
0.000641017719232
0.000641015567749
0.000641014293897
0.000641012557011
0.000641010320607
0.000641008566441
0.000641004881262
0.000640999023336
0.000640995518534
0.000640993089393
0.000640991472615
0.000640989269915
0.00064098589529
0.000640982127056
0.000640979913249
0.000640978128513
0.000640976532897
0.000640972333068
0.000640965411955
0.000640960880988
0.000640958177656
0.000640955653087
0.000640953644456
0.000640951566995
0.000640949815674
0.000640945542648
0.000640941990064
0.000640938693992
0.000640935060627
0.000640932012664
0.00064092987149
0.000640928314669
0.000640926185215
0.000640923945759
0.000640921631135
0.000640917281658
0.000640911006582
0.000640908192273
0.000640906267216
0.000640901545577
0.00064089640513
0.000640887382998
0.000640879634372
0.000640873804144
0.000640870825337
0.000640868779129
0.000640866449854
0.000640864289651
0.000640860622221
0.000640857922949
0.000640854403874
0.000640851978681
0.000640850483582
0.000640847233973
0.000640845136478
0.000640842876292
0.000640841258165
0.0006408375008
0.000640829835791
0.000640822705688
0.000640816432908
0.000640811605736
0.000640807778946
0.000640804289068
0.00064080113983
0.000640798357098
0.00064079563798
0.000640792460935
0.000640788239868
0.000640784677667
0.00064078213264
0.000640779385196
0.000640775161318
0.000640769419202
0.000640762300256
0.000640754963335
0.000640747383885
0.000640739789558
0.000640733137088
0.000640726704198
0.000640719845178
0.000640713966368
0.000640710185767
0.000640707704748
0.000640705599592
0.000640700196587
0.000640696202575
0.000640693541804
0.000640691891956
0.000640690414888
0.000640686688091
0.000640681288876
0.000640677997069
0.00064067628271
0.000640672934004
0.000640666781901
0.000640661866882
0.000640658943075
0.000640657082672
0.00064065253473
0.000640645737076
0.00064063730315
0.000640629088495
0.000640621869731
0.000640616387603
0.000640611972786
0.000640607712545
0.000640602912848
0.000640597539174
0.000640591867887
0.000640586752376
0.000640582816611
0.0006405794463
0.000640576639717
0.000640573977161
0.000640569685991
0.000640563752437
0.000640556634265
0.000640548608771
0.000640540224347
0.000640531177602
0.000640522878579
0.0006405166032
0.000640506821287
0.000640501798568
0.000640497273899
0.000640492469674
0.000640487429301
0.000640481435152
0.000640475667599
0.000640470100641
0.000640465909652
0.000640462571914
0.000640460576186
0.000640458171395
0.000640451315421
0.000640445347594
0.000640441667359
0.000640440304728
0.000640435582922
0.000640427586879
0.000640419857597
0.000640412975447
0.000640406287337
0.000640399528848
0.000640392334637
0.000640384860917
0.000640377879711
0.000640371498341
0.000640365306368
0.00064035911571
0.000640352595611
0.000640345712806
0.000640337644904
0.000640329562444
0.000640322796119
0.000640318093449
0.000640314737196
0.000640311360283
0.000640307843359
0.000640303935764
0.000640294003507
0.000640288409082
0.000640282983055
0.000640278697249
0.00064027285179
0.000640262093133
0.000640252138536
0.00064024341284
0.000640235889855
0.000640229191053
0.000640222745714
0.000640216468487
0.000640210985816
0.000640206368246
0.000640201719473
0.000640198082101
0.000640194072359
0.000640189483335
0.00064018457443
0.000640177770241
0.000640170804093
0.00064016265172
0.000640154388427
0.000640145500447
0.000640136986341
0.000640128886301
0.00064012130956
0.000640113695991
0.000640105660396
0.000640097249409
0.000640088096773
0.000640078845899
0.000640068935997
0.000640060380592
0.000640053345419
0.000640046485978
0.000640040033
0.000640033164569
0.000640024778821
0.000640015700883
0.000640006988422
0.000640000966094
0.000639996602132
0.000639993081212
0.000639989834277
0.000639986246214
0.000639981856489
0.000639976096815
0.000639968937481
0.000639960780147
0.000639952737398
0.000639945551048
0.000639939216927
0.000639933281324
0.000639927598307
0.000639921121189
0.000639914401309
0.000639907424182
0.000639898380177
0.000639890125553
0.000639882063163
0.000639874372537
0.000639866785942
0.000639858961985
0.000639850581684
0.000639841183686
0.000639830715322
0.000639819787875
0.000639809988696
0.000639801779321
0.000639795038661
0.00063978987216
0.000639785722623
0.000639781053148
0.000639775467188
0.000639768585414
0.000639760339976
0.000639750652844
0.00063973969814
0.000639727561726
0.000639714869876
0.000639701253224
0.000639688336395
0.000639677497021
0.000639668869636
0.000639662057527
0.000639656541026
0.000639651219044
0.000639645202757
0.000639637574526
0.000639628930749
0.000639619812041
0.000639610908672
0.000639602295178
0.000639593545472
0.000639584121566
0.000639573775552
0.000639562929921
0.000639552500623
0.000639542534032
0.000639533649871
0.000639526341314
0.000639519942772
0.00063951476164
0.000639511527361
0.000639508159829
0.000639504431129
0.000639494005754
0.000639485894502
0.000639481324101
0.000639478677807
0.000639472808394
0.000639463734584
0.000639454688646
0.000639445033875
0.00063943493381
0.000639424238379
0.000639412743855
0.000639400058273
0.000639386943391
0.000639375312877
0.000639366361253
0.000639358285531
0.000639349196088
0.000639339081523
0.000639327951979
0.000639316585193
0.000639306422184
0.000639297693611
0.000639289844523
0.00063928270598
0.000639275845607
0.000639268590048
0.000639261128021
0.000639253554407
0.000639246051999
0.000639238727204
0.00063923076811
0.00063922232354
0.000639213704307
0.000639204786994
0.00063919542495
0.000639185544837
0.000639174876837
0.000639163837422
0.000639151436348
0.00063913964921
0.000639128243178
0.000639117385289
0.000639106931553
0.000639096591292
0.000639085978139
0.000639074688698
0.000639063003542
0.000639051667378
0.000639041791372
0.000639033698803
0.000639026472972
0.000639020250925
0.000639013548436
0.000639004356967
0.000638994658069
0.000638984229739
0.000638973097228
0.000638961614975
0.000638949791181
0.000638937562441
0.000638925782778
0.000638911697573
0.000638893561961
0.000638880053998
0.000638868935183
0.000638859060671
0.000638850226769
0.000638842387586
0.000638835410446
0.000638828980863
0.000638822648571
0.000638816059529
0.000638809470986
0.000638802313004
0.000638793397293
0.000638782866338
0.000638771533209
0.000638760415455
0.000638751345787
0.000638744894896
0.000638740472354
0.000638735568282
0.00063873143725
0.000638725330779
0.000638717243188
0.000638705326473
0.000638691704377
0.000638677263596
0.000638664037189
0.000638655128278
0.000638647401913
0.000638633202941
0.000638609226584
0.000638586245401
0.000638573547345
0.000638564712271
0.000638556226425
0.000638545530427
0.000638529635431
0.000638523307796
0.000638517440945
0.000638509899405
0.000638501288447
0.000638490851986
0.000638479183978
0.000638467328477
0.000638455005794
0.000638440757467
0.000638425387016
0.000638410930981
0.000638398964218
0.000638389652999
0.000638382053258
0.000638374567221
0.000638367159207
0.000638359413059
0.000638350649095
0.000638341862058
0.000638332438602
0.000638321228539
0.000638308766391
0.000638295575359
0.000638283294683
0.000638271479585
0.000638253715735
0.000638243164115
0.00063823033345
0.000638223429575
0.000638212076919
0.000638202297635
0.000638187180992
0.000638176192474
0.00063815986539
0.00063815259857
0.000638140046309
0.000638131803285
0.000638122151562
0.000638111008848
0.00063810135701
0.000638089022434
0.000638076174418
0.000638063007675
0.000638049527305
0.000638037067413
0.000638025366715
0.000638015215285
0.000638006341542
0.00063799565088
0.000637978202191
0.000637970387511
0.000637956789387
0.000637943666232
0.000637934531488
0.000637925582524
0.000637915062732
0.000637903261962
0.000637891535483
0.000637880177763
0.000637870249817
0.000637863133707
0.000637858490651
0.000637845513492
0.000637822781815
0.000637799250419
0.000637778267178
0.000637762462045
0.00063775328627
0.000637746935524
0.000637739623248
0.000637728444867
0.000637719081258
0.000637702299671
0.000637690031444
0.000637679870155
0.000637670329614
0.000637659851694
0.000637649448247
0.000637637267196
0.000637624727162
0.00063761332355
0.00063760274303
0.000637597029981
0.000637583177018
0.000637572037925
0.000637557793257
0.000637543429967
0.000637529709776
0.000637514244215
0.000637496936289
0.000637480271331
0.000637464151223
0.000637448968996
0.000637435583584
0.000637423823148
0.00063741386648
0.000637404150274
0.000637391693397
0.000637377899456
0.000637368788997
0.000637360174853
0.000637346865622
0.000637332021573
0.000637313674732
0.000637296353325
0.000637285839145
0.000637278383341
0.000637269026354
0.000637261804599
0.000637250476214
0.000637240569689
0.0006372214979
0.000637204199813
0.000637191053983
0.0006371783795
0.000637163817759
0.000637148066387
0.000637132851717
0.000637121142247
0.000637110568869
0.000637097867705
0.000637082966318
0.000637066383216
0.000637049511993
0.000637035349514
0.000637025901499
0.000637019079352
0.000637010038027
0.000636998389295
0.000636989794982
0.000636973363353
0.000636955883405
0.000636938559157
0.000636924113111
0.000636911126624
0.000636897534119
0.00063688165335
0.000636862494794
0.000636843223669
0.000636828797
0.000636820614141
0.000636816058487
0.00063680726133
0.000636794503497
0.000636782596755
0.000636773495499
0.000636764015475
0.000636745271289
0.000636727689007
0.00063671388811
0.0006367021023
0.000636692985699
0.000636684522957
0.000636674744788
0.000636667026046
0.000636659250683
0.000636648704042
0.000636629799842
0.000636612771449
0.000636598747839
0.000636584734949
0.000636569996625
0.000636553463761
0.000636536118447
0.000636518002541
0.000636499708596
0.000636482314546
0.000636467086445
0.000636453389245
0.000636439882113
0.000636426659091
0.000636412824466
0.000636397129838
0.00063638009064
0.000636364084879
0.000636350033283
0.00063633698649
0.000636324039879
0.000636310389099
0.000636296017345
0.000636281360459
0.000636266151916
0.000636250356009
0.000636234763096
0.000636220839271
0.000636208578421
0.000636196703841
0.000636184216842
0.000636170486642
0.000636155319444
0.00063613872406
0.000636121872408
0.000636104992739
0.000636087653059
0.000636071247922
0.000636056118042
0.000636041468309
0.00063602575862
0.000636009513683
0.000635992583946
0.000635974809607
0.000635955375052
0.000635934952237
0.000635914058238
0.000635895882368
0.000635880682739
0.000635869338464
0.000635860712433
0.000635852682433
0.000635842470394
0.000635829275962
0.000635815988898
0.000635803508454
0.000635793770975
0.000635784189209
0.000635772995128
0.000635758181784
0.000635743036565
0.000635730221546
0.00063572228556
0.00063571417371
0.000635707331077
0.000635697764197
0.000635683377718
0.000635660497855
0.000635638516277
0.000635622123488
0.000635610137922
0.000635598897278
0.00063558627532
0.000635572928897
0.000635558542429
0.000635543815703
0.000635529662923
0.000635513801944
0.000635496339825
0.000635477694157
0.000635458968945
0.000635439477289
0.000635420346226
0.000635402044832
0.000635383896561
0.000635367018149
0.000635351429774
0.000635336167421
0.000635320504053
0.000635304164901
0.000635286595793
0.000635268044154
0.000635248874606
0.000635229785683
0.000635211324834
0.000635193516387
0.000635176042087
0.000635159084966
0.00063514238261
0.000635127822434
0.000635113662808
0.000635099987599
0.00063508586716
0.000635070488333
0.000635054769113
0.000635039546826
0.000635025553672
0.000635012307177
0.00063499958521
0.000634986509633
0.000634973099123
0.000634959712556
0.000634946559838
0.000634933458491
0.000634920263657
0.000634907130577
0.000634893270731
0.000634877749731
0.000634861730551
0.000634845772189
0.000634827991171
0.000634808894217
0.000634787974753
0.000634767735669
0.000634748140676
0.00063473013301
0.000634713347211
0.00063469698974
0.000634680428749
0.000634663578907
0.000634646224741
0.000634628260095
0.000634609949902
0.000634591487703
0.00063457342968
0.000634556277909
0.000634540308285
0.000634524980547
0.000634510086333
0.000634496110848
0.000634480868219
0.000634465195182
0.000634449416896
0.000634433470603
0.000634417234328
0.000634400328909
0.000634383767185
0.00063436759653
0.000634353053351
0.000634337426459
0.000634320944743
0.000634303522334
0.00063428592297
0.000634269037636
0.000634253670812
0.000634239631264
0.000634226099464
0.00063421231978
0.000634198216087
0.000634183599743
0.000634167923522
0.000634151200488
0.000634132513152
0.000634111981558
0.000634090345208
0.00063406808047
0.000634046362092
0.000634026866863
0.000634008302802
0.000633990664419
0.000633973982232
0.00063395796217
0.000633941912616
0.000633925842378
0.000633910000699
0.000633894667426
0.000633879926092
0.000633865696503
0.000633851687727
0.000633837416544
0.000633822469371
0.000633806702242
0.000633789979496
0.000633772382819
0.000633754221916
0.000633735976182
0.000633718148159
0.000633701107173
0.000633684501861
0.000633667743435
0.000633650099243
0.000633630787598
0.000633609317195
0.00063358518829
0.000633559896328
0.000633534225133
0.000633509219529
0.000633485331904
0.000633460757004
0.000633435997522
0.000633412901555
0.000633392404187
0.000633374861363
0.000633360434895
0.000633347801471
0.000633335803734
0.000633323853911
0.000633311323968
0.000633298047802
0.000633283895785
0.000633268552127
0.000633252739478
0.000633238081919
0.00063322518831
0.000633213480466
0.000633202021003
0.000633190237512
0.000633178022393
0.00063316542722
0.000633152581496
0.00063313941797
0.00063312543052
0.000633110182286
0.000633094700966
0.00063307955405
0.000633064825189
0.000633050079679
0.000633034394061
0.00063301694235
0.000632997073189
0.000632974379844
0.000632948564536
0.0006329200863
0.000632890313532
0.000632861660341
0.000632835781546
0.000632813506352
0.00063279275132
0.000632772601856
0.000632753457515
0.000632734150532
0.000632714553118
0.000632693763632
0.000632674477559
0.000632657056067
0.000632641739427
0.000632627441677
0.000632614886817
0.000632605686142
0.00063259935903
0.00063259451322
0.000632586531147
0.000632572135502
0.000632546457747
0.000632515618993
0.000632480392053
0.000632446961603
0.000632418139617
0.000632397328777
0.000632381468554
0.000632371266399
0.00063236470772
0.000632361508228
0.00063235405238
0.000632343345911
0.000632328372799
0.00063231010615
0.000632292343975
0.000632274904951
0.000632258466451
0.000632243626776
0.000632229610876
0.000632215520323
0.000632200424362
0.000632183673388
0.000632164850314
0.000632143621877
0.000632120017955
0.000632094286623
0.000632066714591
0.00063203753288
0.000632006901435
0.000631975565366
0.000631945470994
0.000631918270131
0.00063189407025
0.000631872644475
0.000631853143146
0.000631836087695
0.000631820150259
0.000631804483085
0.000631788942202
0.000631773411798
0.000631757497874
0.000631741076461
0.000631724173828
0.000631707685525
0.000631691431118
0.000631675516909
0.000631659838876
0.000631644275633
0.000631628658362
0.000631612913253
0.000631596990467
0.000631580734903
0.00063156413231
0.000631548383195
0.000631533212833
0.000631517620047
0.000631501427301
0.000631483766842
0.000631463962216
0.000631442377409
0.000631418014197
0.000631391958919
0.00063136463559
0.00063133662498
0.000631309065549
0.0006312832592
0.000631261270919
0.000631242580549
0.000631224970963
0.00063120818104
0.000631191564329
0.000631174772004
0.000631157627192
0.000631140298158
0.000631123046493
0.000631106071994
0.000631089462861
0.000631073274536
0.000631057301313
0.000631041424764
0.000631025246162
0.000631008444562
0.00063099078782
0.000630972097001
0.000630952279382
0.000630931351413
0.0006309093713
0.000630886407452
0.000630862441428
0.000630837507955
0.000630811856924
0.000630785952248
0.000630760035763
0.000630734117369
0.000630708460012
0.00063068386774
0.000630660684961
0.000630638987838
0.000630618182781
0.000630598344578
0.000630578978809
0.000630559233855
0.000630539402132
0.000630522251959
0.000630508960302
0.000630499261732
0.000630491558648
0.000630470528204
0.000630459724073
0.000630449791086
0.000630433055557
0.000630414515071
0.000630391103046
0.000630366627754
0.000630347538235
0.000630336889524
0.0006303296773
0.000630307522621
0.000630285570796
0.000630277226739
0.00063026330069
0.000630234488342
0.00063021380756
0.00063019780674
0.000630178655144
0.000630151604852
0.000630133119553
0.000630109163171
0.000630087181841
0.000630067321763
0.00063004546756
0.000630025004653
0.000630005525542
0.000629985750721
0.000629966787923
0.000629947578551
0.000629928872386
0.00062991026415
0.000629891446858
0.000629872047213
0.000629851614984
0.000629829930751
0.000629806488501
0.000629781012375
0.000629753383193
0.00062972363431
0.000629691859316
0.000629658687018
0.000629625305628
0.000629593709574
0.000629564164691
0.000629537478249
0.000629513111809
0.000629490729358
0.000629468096802
0.000629446321147
0.000629424874104
0.000629403958844
0.000629383512449
0.000629364036505
0.000629344772291
0.000629327562714
0.000629308832698
0.000629290704026
0.000629273656393
0.000629255416534
0.000629237585133
0.000629221729305
0.000629204234471
0.000629186807504
0.000629168518164
0.000629150345218
0.000629131807494
0.000629112916266
0.000629093217523
0.000629075089879
0.000629058009424
0.000629040676823
0.000629023888017
0.000629006824715
0.000628990071212
0.000628973980784
0.00062895701176
0.000628940550539
0.000628924320119
0.000628908148392
0.000628892021929
0.000628875961534
0.000628859791401
0.000628843183781
0.000628825915887
0.000628807490522
0.000628787805773
0.000628767145452
0.000628746054209
0.000628724906135
0.000628703807151
0.000628682580872
0.000628660915067
0.000628638022116
0.000628613554271
0.000628586832298
0.000628557551459
0.00062852605247
0.000628493369183
0.000628460708781
0.000628429371333
0.000628400264288
0.000628373541652
0.000628348709212
0.000628325114838
0.000628302306222
0.000628279975011
0.000628257922602
0.000628235921497
0.000628213521699
0.000628192693168
0.000628173562851
0.000628149075104
0.000628126563505
0.000628103424441
0.000628080728866
0.000628058138235
0.000628036120009
0.000628014257937
0.00062799295663
0.000627972498142
0.000627952844968
0.000627933217668
0.000627912256325
0.00062788950864
0.00062786603178
0.000627841948408
0.000627816575228
0.000627790873868
0.000627767448192
0.000627742896129
0.000627718796187
0.000627695571518
0.000627673783809
0.00062765284685
0.000627631535876
0.000627608699223
0.000627583799179
0.000627556597424
0.000627528281494
0.000627499947358
0.00062747263793
0.000627448972707
0.00062742475515
0.000627401082944
0.000627378242061
0.000627356069866
0.000627335063146
0.000627315246586
0.000627297342139
0.000627280881379
0.000627265260858
0.000627249778994
0.00062723400644
0.00062721790552
0.000627201293638
0.000627184170732
0.000627166829948
0.000627149348315
0.000627131770561
0.000627114150792
0.000627096504597
0.000627078947526
0.000627061493494
0.000627044301777
0.00062702764218
0.000627011939903
0.00062699778494
0.00062698598587
0.000626977204738
0.000626971071447
0.000626962205172
0.00062694287595
0.000626915526537
0.000626886831221
0.00062685917876
0.000626832230327
0.000626806475011
0.000626781163227
0.0006267547948
0.000626726330928
0.000626695296898
0.000626661844472
0.000626626355988
0.000626588939266
0.000626550046395
0.000626511292714
0.000626477418411
0.000626442590535
0.000626408343939
0.000626374674452
0.000626342896857
0.000626313388145
0.00062628624605
0.000626261484037
0.000626238522109
0.000626216800346
0.000626195810475
0.000626175084693
0.000626154367294
0.000626133664947
0.000626113113074
0.000626092483531
0.000626072114534
0.000626052208503
0.000626032006356
0.000626012696845
0.000625993954077
0.000625975245151
0.000625957554604
0.000625940518595
0.00062592392224
0.00062590764421
0.00062589266279
0.000625878098593
0.000625863258245
0.00062584925133
0.000625835477003
0.000625823084342
0.000625809706981
0.000625795741802
0.000625782970111
0.000625769164564
0.000625756095447
0.000625741972354
0.000625727125842
0.00062571137567
0.000625694701016
0.000625676806519
0.000625657661034
0.000625637458073
0.000625616439579
0.000625594476073
0.000625570881369
0.00062554833428
0.000625522961995
0.000625493636099
0.000625460076181
0.000625422472253
0.000625382153265
0.000625338855015
0.000625293639483
0.000625248101619
0.000625208066797
0.000625169559869
0.000625134609341
0.000625103637117
0.000625075979466
0.000625050976606
0.000625027897156
0.000625005631389
0.000624983464488
0.000624961267574
0.000624938904456
0.000624916335129
0.000624893615083
0.000624870604831
0.00062484723861
0.00062482362794
0.000624800039598
0.000624776809358
0.000624754250116
0.000624732578987
0.000624711821025
0.000624691554715
0.000624671216753
0.00062465291056
0.000624633665295
0.00062461432484
0.000624595020918
0.00062457565817
0.000624556138718
0.00062453605174
0.000624515296334
0.000624493478996
0.000624470258839
0.000624445203824
0.000624417787292
0.000624387573842
0.000624354377654
0.000624317657426
0.000624281344682
0.000624245307952
0.000624206103937
0.000624168192972
0.0006241327957
0.000624100529176
0.00062407128251
0.000624045414532
0.000624021778773
0.000623999704986
0.00062397876681
0.00062395839375
0.000623937999243
0.000623917605624
0.000623897933069
0.000623877755175
0.000623857782697
0.000623838513266
0.000623819879373
0.000623804217293
0.000623790837037
0.000623781953372
0.000623775778088
0.000623771186414
0.000623759734677
0.00062374078236
0.000623720328514
0.000623700862866
0.000623678891824
0.000623655426573
0.000623632900475
0.000623605997652
0.000623574945779
0.00062353934215
0.00062349983205
0.000623458267836
0.000623416578346
0.000623378894001
0.000623346449967
0.000623318845651
0.000623297582125
0.000623278964496
0.000623264863436
0.000623255117674
0.000623250457998
0.000623240059538
0.000623223605941
0.000623201156559
0.000623177641416
0.000623152783946
0.000623132999517
0.000623113775645
0.000623094725925
0.000623076736524
0.000623059552981
0.000623042658369
0.000623026183378
0.000623010294824
0.000622994836205
0.000622979541785
0.000622963859785
0.000622947418153
0.000622929520494
0.000622909748418
0.0006228875804
0.00062286261362
0.000622834341631
0.000622802339208
0.00062276657198
0.000622727521539
0.000622686530756
0.000622645681166
0.000622607126061
0.000622572656051
0.00062254304159
0.000622516306264
0.000622490946464
0.00062246654804
0.000622441537901
0.000622415406246
0.000622387797573
0.000622359688474
0.000622331532982
0.000622304708685
0.000622279939474
0.000622257765891
0.000622237640803
0.000622218669435
0.000622200506846
0.000622182474974
0.000622164322245
0.000622145836528
0.00062212690274
0.00062210757565
0.000622087517801
0.00062206653977
0.000622043812351
0.000622019461391
0.000621992721719
0.000621964728258
0.000621932553009
0.000621899382987
0.000621865051318
0.000621830558918
0.000621796341211
0.000621762975855
0.000621730843198
0.000621700201865
0.000621670888419
0.000621642657129
0.000621615195925
0.000621588130415
0.000621561310433
0.000621534560532
0.000621507885387
0.000621481388856
0.000621455265942
0.000621429539333
0.000621402793335
0.000621377812529
0.000621355135852
0.00062133073092
0.000621306362219
0.000621281314278
0.000621255948037
0.000621230452634
0.000621205372789
0.000621181715923
0.000621159870241
0.000621139528176
0.000621120197199
0.000621100649599
0.000621079925192
0.000621057125167
0.000621033417985
0.000621010952066
0.000620986843695
0.000620963241618
0.000620939992635
0.000620916632646
0.000620893090885
0.000620868757506
0.000620843662987
0.000620818087288
0.000620791135369
0.000620763400344
0.000620733858094
0.000620703235748
0.000620671069122
0.000620637146193
0.000620600870948
0.000620563378265
0.000620524818168
0.000620486027683
0.000620447684435
0.000620411463934
0.000620377717572
0.000620346495479
0.000620317190072
0.000620286998412
0.000620256980295
0.000620226214106
0.00062019736555
0.000620170586447
0.000620149000621
0.000620128955714
0.000620110739857
0.000620093378044
0.000620077285338
0.00062006062496
0.000620042223061
0.000620022564538
0.000620001859384
0.000619980589668
0.000619959135888
0.00061993757889
0.000619916109054
0.000619894764664
0.00061987379008
0.000619853643954
0.000619834402262
0.000619815834795
0.000619799758596
0.000619785465561
0.000619771317187
0.000619757069787
0.000619742680371
0.000619728101899
0.000619712871204
0.000619696692619
0.000619679117013
0.000619659748492
0.000619638258361
0.000619614151403
0.000619587134925
0.000619557177404
0.000619524367451
0.000619488613781
0.000619449906963
0.000619408661315
0.000619365417453
0.000619321671644
0.000619279940502
0.000619234171237
0.000619187725708
0.000619142438854
0.000619098156072
0.000619055830355
0.000619015938641
0.000618975852932
0.000618936097631
0.00061889644915
0.000618859785101
0.000618826575021
0.000618797154554
0.00061877475031
0.000618762488364
0.000618750635507
0.000618717799442
0.000618690872638
0.000618680387567
0.000618666747887
0.000618643011137
0.000618615035748
0.000618584222414
0.000618553986783
0.000618528719766
0.000618513746999
0.000618503746074
0.000618493312941
0.000618468813608
0.000618457684477
0.000618445951259
0.000618420363162
0.000618396504694
0.000618379581314
0.000618365258263
0.000618345034308
0.000618321964061
0.000618301169781
0.00061827186858
0.000618238099662
0.00061819806059
0.000618153250977
0.000618106603037
0.000618060994585
0.000618016446122
0.000617973409375
0.000617932888657
0.000617897061247
0.000617864425289
0.000617835778446
0.00061780914262
0.000617785344326
0.000617764434468
0.000617745295401
0.000617730549248
0.000617716925187
0.000617703257798
0.000617690929138
0.000617677170579
0.000617665672561
0.000617653577086
0.000617642024409
0.000617625784287
0.000617605731525
0.000617582300727
0.000617555915854
0.000617529884432
0.000617509372752
0.000617492342454
0.000617477602269
0.00061746346192
0.000617448016442
0.00061743020335
0.000617411394933
0.000617393459564
0.000617377116201
0.000617360929485
0.000617342505059
0.000617319893718
0.00061729249234
0.000617261588852
0.000617227448918
0.000617190545999
0.00061715291041
0.000617117033611
0.000617081816156
0.000617050291454
0.000617016196567
0.000616982601338
0.000616953434097
0.000616928072753
0.000616903303697
0.000616877091913
0.00061685031146
0.000616821949669
0.000616793377637
0.000616764839871
0.000616735391419
0.000616704587236
0.000616673439209
0.000616642231678
0.000616610074555
0.000616573815683
0.000616536784512
0.000616497563948
0.00061645435061
0.000616411064707
0.000616369969154
0.000616330802263
0.000616294862283
0.000616260507703
0.000616227368971
0.000616194444407
0.000616161759733
0.000616128675166
0.000616096532665
0.00061606423832
0.000616034066364
0.00061600514436
0.000615977163031
0.000615954690909
0.000615929351374
0.000615904527433
0.000615879761878
0.000615855254119
0.000615831330671
0.000615808174794
0.000615785809931
0.000615764082533
0.000615742665846
0.000615721045064
0.000615698948426
0.000615676320665
0.000615653117517
0.000615629404173
0.000615605195103
0.000615580457307
0.000615554969398
0.000615528966913
0.000615502566069
0.000615475851466
0.00061544890934
0.000615421724492
0.000615394353385
0.000615366891786
0.000615339288262
0.00061531121947
0.000615282531499
0.000615253429344
0.000615224026924
0.000615194021572
0.000615163279589
0.000615131539722
0.00061509870853
0.000615064737566
0.000615029952423
0.000614994665852
0.000614958914819
0.000614923168649
0.000614887396175
0.000614851730783
0.00061481622942
0.000614780568844
0.000614743495089
0.000614705661913
0.000614666405508
0.000614625246474
0.000614582413469
0.000614537303956
0.000614490546933
0.000614443869443
0.000614398184137
0.000614354486124