/*--------------------------------*- C++ -*----------------------------------*\
  =========                 |
  \\      /  F ield         | OpenFOAM: The Open Source CFD Toolbox
   \\    /   O peration     | Website:  https://openfoam.org
    \\  /    A nd           | Version:  6
     \\/     M anipulation  |
\*---------------------------------------------------------------------------*/
FoamFile
{
    version     2.0;
    format      ascii;
    class       volScalarField;
    location    "0.0005";
    object      O3;
}
// * * * * * * * * * * * * * * * * * * * * * * * * * * * * * * * * * * * * * //

dimensions      [0 0 0 0 0 0 0];

internalField   nonuniform List<scalar> 
32000
(
5.44910647302e-11
5.44911220393e-11
5.44910845731e-11
5.44911530744e-11
5.44910962384e-11
5.44913815571e-11
5.44914851836e-11
5.449158754e-11
5.44916388955e-11
5.44919619438e-11
5.4491959373e-11
5.44924387612e-11
5.44928029903e-11
5.44929715998e-11
5.4492788974e-11
5.44930452826e-11
5.4493587699e-11
5.44938153771e-11
5.44939508791e-11
5.44946712382e-11
5.44947091491e-11
5.44944084733e-11
5.44951849136e-11
5.44960518428e-11
5.44964084124e-11
5.44966945644e-11
5.44971837171e-11
5.44972131362e-11
5.44969643232e-11
5.44977537858e-11
5.44987062276e-11
5.44993019022e-11
5.44996531529e-11
5.45001828232e-11
5.45001883627e-11
5.45009162922e-11
5.45017384129e-11
5.45015425168e-11
5.45012999034e-11
5.45023205886e-11
5.4503796215e-11
5.45045728928e-11
5.45050115185e-11
5.45051854086e-11
5.45053354582e-11
5.45061234714e-11
5.4507214733e-11
5.45075755698e-11
5.45073419368e-11
5.45078367759e-11
5.4508933231e-11
5.45097866262e-11
5.45104535888e-11
5.4512089499e-11
5.45130640942e-11
5.45134222988e-11
5.45132129543e-11
5.45127253669e-11
5.45132266867e-11
5.45147569232e-11
5.45160676672e-11
5.45162828938e-11
5.45158012123e-11
5.45166083244e-11
5.45185879188e-11
5.45206330548e-11
5.45209730514e-11
5.45203522312e-11
5.45199974207e-11
5.45206692965e-11
5.45220133246e-11
5.45233449496e-11
5.45244073021e-11
5.4525813525e-11
5.45274002738e-11
5.45281847147e-11
5.45283412929e-11
5.45275396923e-11
5.45277806174e-11
5.45295018944e-11
5.45307561637e-11
5.45316267488e-11
5.45328988854e-11
5.45339066296e-11
5.45340248451e-11
5.45342515227e-11
5.45358044719e-11
5.45377996687e-11
5.45395729293e-11
5.45401235121e-11
5.45394568513e-11
5.45376736621e-11
5.45368309885e-11
5.45374416144e-11
5.45397512661e-11
5.45424901033e-11
5.45440897955e-11
5.45450169872e-11
5.45449923272e-11
5.45430703515e-11
5.45425640433e-11
5.45443208109e-11
5.45466685496e-11
5.4548517458e-11
5.45496977587e-11
5.45494136235e-11
5.45466479485e-11
5.45459868514e-11
5.4547230431e-11
5.45491879634e-11
5.45499658717e-11
5.45488545268e-11
5.45465608492e-11
5.45469241903e-11
5.45475240079e-11
5.45479901599e-11
5.45454087059e-11
5.45387894602e-11
5.4534270178e-11
5.4532080868e-11
5.45303808191e-11
5.45288542655e-11
5.45267017645e-11
5.45245953018e-11
5.45189421433e-11
5.45140039121e-11
5.45092773747e-11
5.45039933284e-11
5.44995905086e-11
5.44967963397e-11
5.44950708318e-11
5.44928749674e-11
5.44906567058e-11
5.44883875296e-11
5.4483843456e-11
5.44772159516e-11
5.44746154382e-11
5.44732246155e-11
5.44696510198e-11
5.44658546829e-11
5.44584629232e-11
5.44518415135e-11
5.44466328442e-11
5.44441930901e-11
5.44424439415e-11
5.44401565387e-11
5.44376831241e-11
5.44330876464e-11
5.44293160914e-11
5.44241666238e-11
5.44206806691e-11
5.44188013349e-11
5.44147015008e-11
5.44120965911e-11
5.44097303425e-11
5.44082438477e-11
5.44045737282e-11
5.43963892697e-11
5.43889387408e-11
5.43828148621e-11
5.43783843634e-11
5.43750771981e-11
5.43715806872e-11
5.4368248044e-11
5.43652850641e-11
5.43622981751e-11
5.43585899541e-11
5.43533242296e-11
5.43488843966e-11
5.4346053156e-11
5.43433301716e-11
5.43388105561e-11
5.43328710055e-11
5.4325972829e-11
5.43196338539e-11
5.43139038093e-11
5.43087250798e-11
5.43043340546e-11
5.42997232719e-11
5.42939776286e-11
5.42884730204e-11
5.42845915217e-11
5.42817125819e-11
5.4279018104e-11
5.42716475866e-11
5.42659168122e-11
5.42619516574e-11
5.42594641132e-11
5.42572244256e-11
5.42513880236e-11
5.42428494972e-11
5.42378596995e-11
5.42355137652e-11
5.42312496601e-11
5.42236551985e-11
5.42179326792e-11
5.42148079018e-11
5.42129551254e-11
5.42085413114e-11
5.42021425237e-11
5.41943863319e-11
5.41872250719e-11
5.41809933333e-11
5.41762401178e-11
5.41721089343e-11
5.41676774371e-11
5.4162325021e-11
5.41560969935e-11
5.41493501615e-11
5.41432275704e-11
5.41385030244e-11
5.41344328901e-11
5.4131053105e-11
5.412796362e-11
5.4123236498e-11
5.4117108801e-11
5.41103118345e-11
5.41032758463e-11
5.40967445646e-11
5.40900135082e-11
5.40841878285e-11
5.40797858081e-11
5.4072847426e-11
5.40689271698e-11
5.40650991482e-11
5.40605421465e-11
5.40552260296e-11
5.40487514175e-11
5.40423752314e-11
5.40362311177e-11
5.40313813011e-11
5.40273659323e-11
5.40249393084e-11
5.40220629635e-11
5.40140074584e-11
5.4007136202e-11
5.4003024367e-11
5.40016011183e-11
5.39967824531e-11
5.39888748321e-11
5.39815642381e-11
5.39754459853e-11
5.39698287298e-11
5.39642797551e-11
5.39585257977e-11
5.39525702145e-11
5.39469888398e-11
5.39418796807e-11
5.39367430754e-11
5.39313772518e-11
5.39254807681e-11
5.39191667572e-11
5.39118408041e-11
5.39046027748e-11
5.38985093473e-11
5.38941299209e-11
5.38908792562e-11
5.38876633612e-11
5.38844731814e-11
5.38810973451e-11
5.38727234166e-11
5.38680727157e-11
5.38636054242e-11
5.38600473015e-11
5.38552672425e-11
5.38466586309e-11
5.38388684267e-11
5.38320719593e-11
5.38260990953e-11
5.38205028169e-11
5.38147642685e-11
5.38088345459e-11
5.38034342866e-11
5.37987887239e-11
5.37941259465e-11
5.37905216134e-11
5.37866279889e-11
5.37822737688e-11
5.37777715921e-11
5.37717117326e-11
5.37658811988e-11
5.37592885183e-11
5.37531745119e-11
5.37467837714e-11
5.37408674848e-11
5.37354579733e-11
5.37303359068e-11
5.37252973946e-11
5.37199029608e-11
5.37143582888e-11
5.37084355959e-11
5.37025227607e-11
5.36962281939e-11
5.36907869853e-11
5.36861308692e-11
5.36812908669e-11
5.36765317185e-11
5.36713604331e-11
5.36650596019e-11
5.36582575942e-11
5.36516630596e-11
5.36468813737e-11
5.36430958488e-11
5.3639687725e-11
5.36362597072e-11
5.36323521671e-11
5.36277091053e-11
5.36220229312e-11
5.36154893521e-11
5.36083980451e-11
5.36018412493e-11
5.35960736261e-11
5.35910209208e-11
5.3586275213e-11
5.35816983675e-11
5.35764679725e-11
5.3571367012e-11
5.35661699734e-11
5.35596372337e-11
5.35538699789e-11
5.35484672997e-11
5.35432414076e-11
5.35380883769e-11
5.35327094459e-11
5.35268629893e-11
5.35203354004e-11
5.35132675756e-11
5.35062368311e-11
5.35001541036e-11
5.3495148043e-11
5.34909681605e-11
5.3487530933e-11
5.3484621063e-11
5.34813218494e-11
5.34774171821e-11
5.34728211989e-11
5.34676221563e-11
5.34618458498e-11
5.34555465523e-11
5.34489438059e-11
5.3442207191e-11
5.3435212769e-11
5.3428621906e-11
5.34229837755e-11
5.34183286793e-11
5.34142819049e-11
5.34106273655e-11
5.34069419556e-11
5.34026852462e-11
5.33973413899e-11
5.33914534422e-11
5.33853468173e-11
5.33795173358e-11
5.33740385458e-11
5.33686421338e-11
5.33630582544e-11
5.33571281507e-11
5.33509705633e-11
5.33448294623e-11
5.33385788411e-11
5.33326137008e-11
5.33274229737e-11
5.33226971842e-11
5.33187216848e-11
5.33161161852e-11
5.33134020959e-11
5.33104607323e-11
5.33024499412e-11
5.32963245262e-11
5.32928932121e-11
5.32908460616e-11
5.32863655382e-11
5.32796195457e-11
5.32731948239e-11
5.32667990359e-11
5.32606858359e-11
5.32547787559e-11
5.32489774258e-11
5.32430325788e-11
5.32371623031e-11
5.32320712816e-11
5.32280620153e-11
5.3224287349e-11
5.32198153064e-11
5.32146465998e-11
5.32088156808e-11
5.3202777836e-11
5.31972429567e-11
5.31922827406e-11
5.31874533012e-11
5.31828418435e-11
5.31781777513e-11
5.31730175585e-11
5.31675903466e-11
5.3162036635e-11
5.3156594873e-11
5.31514765676e-11
5.31462308252e-11
5.31410046131e-11
5.31359713273e-11
5.31311171659e-11
5.31262946127e-11
5.31214393723e-11
5.31164018837e-11
5.31112785438e-11
5.31055574854e-11
5.31001125938e-11
5.30948468552e-11
5.3089805953e-11
5.30849375606e-11
5.30800424906e-11
5.30748948361e-11
5.30692770362e-11
5.30632777526e-11
5.30573016379e-11
5.30519747657e-11
5.30474998441e-11
5.3043393515e-11
5.30397735889e-11
5.3035870657e-11
5.30306504144e-11
5.30253721414e-11
5.30200153194e-11
5.30146623506e-11
5.30094718944e-11
5.30044218723e-11
5.29994153405e-11
5.29947244614e-11
5.29892099649e-11
5.29821406597e-11
5.29767336909e-11
5.29719234359e-11
5.29672008158e-11
5.29625478575e-11
5.29580629089e-11
5.29537711265e-11
5.29495358661e-11
5.29451145358e-11
5.29403390186e-11
5.29355313837e-11
5.29304383229e-11
5.29243730374e-11
5.29175876899e-11
5.29106833192e-11
5.29041444974e-11
5.28989044841e-11
5.28951034542e-11
5.28923949943e-11
5.28892489073e-11
5.28865801388e-11
5.28828626285e-11
5.28784281996e-11
5.28723734923e-11
5.28660548596e-11
5.28597953074e-11
5.28543263647e-11
5.28507556368e-11
5.28477496035e-11
5.28424251049e-11
5.28337237336e-11
5.28255738627e-11
5.2821089327e-11
5.28178054275e-11
5.28145488575e-11
5.28103883003e-11
5.2804089437e-11
5.28011512527e-11
5.27979767448e-11
5.27936156298e-11
5.27889184763e-11
5.27836566181e-11
5.27780569131e-11
5.27725871936e-11
5.27671234875e-11
5.27610156069e-11
5.27545415913e-11
5.27484903134e-11
5.27434390943e-11
5.27393171049e-11
5.27356770074e-11
5.27318101535e-11
5.27276890868e-11
5.27232848018e-11
5.27184419437e-11
5.27138350001e-11
5.27092291421e-11
5.27041203868e-11
5.26987191311e-11
5.26932210795e-11
5.26882464792e-11
5.26835405446e-11
5.26765479245e-11
5.2672415419e-11
5.26673703406e-11
5.26646171652e-11
5.26601265238e-11
5.26562861901e-11
5.26503692347e-11
5.26460503335e-11
5.26395496275e-11
5.26363792411e-11
5.26308269362e-11
5.26268240641e-11
5.26221503002e-11
5.26169604947e-11
5.26125142444e-11
5.26070876434e-11
5.26014856426e-11
5.25957741789e-11
5.25899305733e-11
5.25844882618e-11
5.25795034856e-11
5.25752817725e-11
5.25716779638e-11
5.25674126976e-11
5.25605276089e-11
5.25574120769e-11
5.25519161014e-11
5.25465215276e-11
5.25425338771e-11
5.2538291439e-11
5.25333910948e-11
5.25281254706e-11
5.2523027137e-11
5.2518275217e-11
5.25142275941e-11
5.25113911136e-11
5.25096013498e-11
5.25048074407e-11
5.24967607291e-11
5.2488931675e-11
5.24822317315e-11
5.24770357407e-11
5.24739217694e-11
5.24716087763e-11
5.24688341288e-11
5.2464542538e-11
5.24608946397e-11
5.24541915353e-11
5.24490277682e-11
5.24443507001e-11
5.24393454167e-11
5.24336841944e-11
5.24285653468e-11
5.2423179466e-11
5.24179126665e-11
5.24132466252e-11
5.24089768758e-11
5.24066911185e-11
5.24012445783e-11
5.2396999802e-11
5.23916918402e-11
5.23864510296e-11
5.23816249256e-11
5.23763520545e-11
5.23705143228e-11
5.23649909087e-11
5.23597585404e-11
5.23547567286e-11
5.23503037554e-11
5.23462748165e-11
5.23427600429e-11
5.23391980212e-11
5.23344903673e-11
5.23291984847e-11
5.23256488903e-11
5.23222282427e-11
5.23169046728e-11
5.23109462749e-11
5.23035010352e-11
5.22963473186e-11
5.22918759629e-11
5.22888098474e-11
5.22851006348e-11
5.22822570059e-11
5.22778407064e-11
5.22741079684e-11
5.2267120916e-11
5.22609653264e-11
5.22564094705e-11
5.22520436561e-11
5.22470850814e-11
5.22419008117e-11
5.2236957952e-11
5.22331318594e-11
5.22295400806e-11
5.22250385569e-11
5.22196406303e-11
5.22135544066e-11
5.22072529238e-11
5.22018601885e-11
5.21981983827e-11
5.21955137978e-11
5.2191955713e-11
5.2187403549e-11
5.21841156742e-11
5.21780118594e-11
5.217186898e-11
5.21660434903e-11
5.21611604346e-11
5.2156836013e-11
5.21522315159e-11
5.21468084865e-11
5.21403579456e-11
5.21339261583e-11
5.21290865727e-11
5.21262430752e-11
5.21245432532e-11
5.21211647222e-11
5.211625459e-11
5.21116285204e-11
5.21080060149e-11
5.21042333557e-11
5.20967569372e-11
5.20895637018e-11
5.2083584717e-11
5.20782710486e-11
5.20742800683e-11
5.20707521639e-11
5.20668257552e-11
5.20637653612e-11
5.20607274631e-11
5.20567294957e-11
5.20497380604e-11
5.20436642578e-11
5.20389388801e-11
5.20342725496e-11
5.20295684023e-11
5.20244286414e-11
5.20192072088e-11
5.20140314771e-11
5.20089111513e-11
5.20040955984e-11
5.19999365109e-11
5.1996145205e-11
5.19922608733e-11
5.19883253943e-11
5.19840948775e-11
5.19791761695e-11
5.19738126003e-11
5.19687261208e-11
5.19641736638e-11
5.19598202933e-11
5.19554128618e-11
5.19507187178e-11
5.19457586839e-11
5.19407364593e-11
5.1935613443e-11
5.19304029985e-11
5.19253424268e-11
5.19208662266e-11
5.19168942568e-11
5.19129662387e-11
5.19087683678e-11
5.19041506687e-11
5.18991403918e-11
5.18938065642e-11
5.18885588076e-11
5.18834635468e-11
5.18783240756e-11
5.18734885991e-11
5.18689829825e-11
5.18645770519e-11
5.18598444911e-11
5.18550161359e-11
5.18501013963e-11
5.18450852536e-11
5.18397288214e-11
5.18341842451e-11
5.18284526762e-11
5.1823312301e-11
5.18187955337e-11
5.18152049524e-11
5.18123144455e-11
5.18094786971e-11
5.18057592645e-11
5.18009094914e-11
5.17960284416e-11
5.17914440822e-11
5.17878315551e-11
5.17842168628e-11
5.17799432949e-11
5.17742991301e-11
5.176851984e-11
5.17636044298e-11
5.176052151e-11
5.17573443195e-11
5.17546912026e-11
5.17511555069e-11
5.17461931051e-11
5.17385711283e-11
5.1731485565e-11
5.17263403785e-11
5.17225059935e-11
5.17187539919e-11
5.17144310327e-11
5.17098961906e-11
5.17050884823e-11
5.17003067805e-11
5.16960166308e-11
5.16914020602e-11
5.16865871493e-11
5.1681609872e-11
5.16767531282e-11
5.16717328761e-11
5.16668219564e-11
5.16620910842e-11
5.16573217908e-11
5.16528260012e-11
5.16485769063e-11
5.16443187858e-11
5.16398786879e-11
5.16352373645e-11
5.16303279095e-11
5.16252711507e-11
5.16201885765e-11
5.16152725741e-11
5.16106092032e-11
5.16061634653e-11
5.16017972601e-11
5.15974900818e-11
5.15931233345e-11
5.15891465212e-11
5.15851150174e-11
5.15810511467e-11
5.15766944628e-11
5.1571789225e-11
5.15667236989e-11
5.15618146817e-11
5.15572698943e-11
5.15528683767e-11
5.15485887842e-11
5.15441321692e-11
5.15395444359e-11
5.15349858742e-11
5.15305514875e-11
5.15261960635e-11
5.15218895843e-11
5.15177202095e-11
5.15134618146e-11
5.15088584185e-11
5.15042886791e-11
5.1499937241e-11
5.14952441549e-11
5.1490382232e-11
5.14851677635e-11
5.14802991236e-11
5.14755997843e-11
5.14712329018e-11
5.14670702355e-11
5.1462880526e-11
5.14584994723e-11
5.14539718495e-11
5.14492492556e-11
5.14443444551e-11
5.14393764298e-11
5.14343721477e-11
5.14294916712e-11
5.14248422344e-11
5.14204766947e-11
5.14162152205e-11
5.14120213678e-11
5.14080373372e-11
5.14036813112e-11
5.13992345104e-11
5.13948147124e-11
5.13904299822e-11
5.13860511141e-11
5.13815468025e-11
5.13771588551e-11
5.13728450943e-11
5.13689054291e-11
5.13646047915e-11
5.1360012069e-11
5.13551315933e-11
5.13502078189e-11
5.13455031878e-11
5.13412190748e-11
5.13372668927e-11
5.13334051073e-11
5.1329430245e-11
5.13253686182e-11
5.13212278731e-11
5.13169231184e-11
5.13125399982e-11
5.13079025397e-11
5.13030935419e-11
5.12982538452e-11
5.12934263599e-11
5.12887794077e-11
5.12845825852e-11
5.12804676389e-11
5.12763912698e-11
5.12723368476e-11
5.12682318248e-11
5.12639418136e-11
5.12595099475e-11
5.12550286259e-11
5.12506023384e-11
5.12462824625e-11
5.12420600902e-11
5.12378696296e-11
5.12335994281e-11
5.12291740418e-11
5.12246091018e-11
5.12199065099e-11
5.12151329469e-11
5.12103681974e-11
5.12057223101e-11
5.12012744811e-11
5.1197069282e-11
5.11929958217e-11
5.11889197623e-11
5.1184712206e-11
5.11802690806e-11
5.11755780752e-11
5.11706100736e-11
5.11657031476e-11
5.11609493319e-11
5.11564377498e-11
5.11521227799e-11
5.11475718282e-11
5.11428072199e-11
5.11381169723e-11
5.11336982535e-11
5.11296565507e-11
5.11260638218e-11
5.11226547675e-11
5.11191920111e-11
5.11155785726e-11
5.11116695946e-11
5.11074802307e-11
5.11030267451e-11
5.10982309651e-11
5.10933130966e-11
5.10887558139e-11
5.10847057679e-11
5.10809533e-11
5.10772063451e-11
5.10733071736e-11
5.10692701843e-11
5.10651660964e-11
5.1061083564e-11
5.105702711e-11
5.10528578803e-11
5.10484382668e-11
5.10440791751e-11
5.10399257911e-11
5.10359950967e-11
5.10321714487e-11
5.10282913349e-11
5.10242203786e-11
5.10199041904e-11
5.10153251381e-11
5.10104721799e-11
5.10054084686e-11
5.10003170588e-11
5.09954987441e-11
5.09911128299e-11
5.09871956194e-11
5.09833239871e-11
5.09792848342e-11
5.09751293429e-11
5.09706517409e-11
5.09658932637e-11
5.09607355383e-11
5.09557575106e-11
5.09511016821e-11
5.09468957423e-11
5.09428984105e-11
5.09392389202e-11
5.09364823782e-11
5.09345493392e-11
5.09331009947e-11
5.09308566905e-11
5.09271503513e-11
5.09209222615e-11
5.09140097606e-11
5.09064761719e-11
5.08997151649e-11
5.08939721236e-11
5.08896292719e-11
5.08860392549e-11
5.08835148002e-11
5.08816612811e-11
5.08806590426e-11
5.08783174471e-11
5.08750056902e-11
5.08705054825e-11
5.08651895571e-11
5.08601743096e-11
5.08553227027e-11
5.08508265235e-11
5.08468041631e-11
5.08429966957e-11
5.08392137036e-11
5.08353019791e-11
5.08312007426e-11
5.08269116294e-11
5.08224334949e-11
5.08178283779e-11
5.08131492987e-11
5.08084249875e-11
5.08036509558e-11
5.07988137043e-11
5.07939754549e-11
5.07893390187e-11
5.07850893292e-11
5.07811571916e-11
5.07774636593e-11
5.07738482959e-11
5.07704242562e-11
5.07669774648e-11
5.07633683473e-11
5.07595852542e-11
5.07556055997e-11
5.07514358672e-11
5.07470671263e-11
5.07425750993e-11
5.07381575138e-11
5.07337901215e-11
5.0729485968e-11
5.0725203915e-11
5.07209342426e-11
5.07166400566e-11
5.07123463087e-11
5.07080755398e-11
5.07037972505e-11
5.06995377501e-11
5.06955957198e-11
5.06918915231e-11
5.06881893233e-11
5.068447295e-11
5.06805842426e-11
5.06764225866e-11
5.06721197905e-11
5.06674907956e-11
5.06627674696e-11
5.06580242755e-11
5.06532907608e-11
5.06486843811e-11
5.06443218701e-11
5.06404960046e-11
5.06370634275e-11
5.06336109213e-11
5.06300836989e-11
5.06263923705e-11
5.06225027575e-11
5.06184221972e-11
5.06142311873e-11
5.061001788e-11
5.06058422008e-11
5.06017305608e-11
5.05977017778e-11
5.05937132842e-11
5.05897593533e-11
5.05857837314e-11
5.05817590849e-11
5.05776784016e-11
5.05735429116e-11
5.05693620633e-11
5.0565148812e-11
5.05609168605e-11
5.05566674538e-11
5.05523838153e-11
5.05480507867e-11
5.05436894343e-11
5.0539347131e-11
5.05350278428e-11
5.05306924468e-11
5.05263448524e-11
5.05220785659e-11
5.05179153175e-11
5.05138440573e-11
5.05097573518e-11
5.05056555643e-11
5.05014457996e-11
5.04969469826e-11
5.04922405494e-11
5.04880242959e-11
5.04846832433e-11
5.04822302392e-11
5.04802838522e-11
5.04749844735e-11
5.0472269422e-11
5.04697787672e-11
5.04655863317e-11
5.04609638893e-11
5.04552411026e-11
5.04493897672e-11
5.04448871147e-11
5.04423885628e-11
5.04407013453e-11
5.04355998362e-11
5.04305798511e-11
5.04286679723e-11
5.04255423525e-11
5.04192143407e-11
5.04147529623e-11
5.04114192567e-11
5.04075597031e-11
5.04021787242e-11
5.03986493948e-11
5.03941172104e-11
5.03899242842e-11
5.03861004376e-11
5.03818324798e-11
5.03776842408e-11
5.0373661256e-11
5.03694670089e-11
5.03653994349e-11
5.03612571672e-11
5.03572620081e-11
5.03533383933e-11
5.0349469922e-11
5.03455923759e-11
5.03416650538e-11
5.03376649064e-11
5.03335450361e-11
5.03292691746e-11
5.03248237239e-11
5.03202093409e-11
5.03154225307e-11
5.03105222823e-11
5.03056316547e-11
5.03009872742e-11
5.02965680556e-11
5.02924562482e-11
5.02885556777e-11
5.02848089227e-11
5.02808798029e-11
5.02769486216e-11
5.02729570244e-11
5.02689542871e-11
5.02649503932e-11
5.02610274192e-11
5.0257039595e-11
5.02533979704e-11
5.02493908977e-11
5.02454188565e-11
5.02416005367e-11
5.02375194539e-11
5.02335250467e-11
5.02299634013e-11
5.02260666715e-11
5.02222242024e-11
5.02182133505e-11
5.02142387219e-11
5.02102151758e-11
5.02061273118e-11
5.02018900892e-11
5.01979602332e-11
5.01942326328e-11
5.0190401541e-11
5.01866434463e-11
5.01827772365e-11
5.01789310064e-11
5.01751888204e-11
5.01712295845e-11
5.01673578932e-11
5.01635047825e-11
5.01596602077e-11
5.0155831321e-11
5.01520441501e-11
5.01482701354e-11
5.01444734503e-11
5.01406248252e-11
5.01366567202e-11
5.01325715503e-11
5.01284465694e-11
5.01243878503e-11
5.01204497469e-11
5.01166325157e-11
5.01128879833e-11
5.0109155813e-11
5.01053260741e-11
5.01013556334e-11
5.00971623053e-11
5.00927110938e-11
5.00880527485e-11
5.00833153258e-11
5.00786281998e-11
5.00741162598e-11
5.0069854788e-11
5.00658205425e-11
5.00619192815e-11
5.00580527319e-11
5.00541687538e-11
5.00502437968e-11
5.00462721206e-11
5.00422466707e-11
5.00381178842e-11
5.00342717129e-11
5.00307417562e-11
5.00262323374e-11
5.00220963003e-11
5.00178410186e-11
5.00136536712e-11
5.00094594775e-11
5.00053324284e-11
5.00011930288e-11
4.99971234587e-11
4.99931877863e-11
4.99894007119e-11
4.99856409871e-11
4.9981680806e-11
4.99774681646e-11
4.99732284324e-11
4.99690143765e-11
4.99646828194e-11
4.99603860955e-11
4.99565363841e-11
4.99525499179e-11
4.99486732714e-11
4.99449621461e-11
4.99414988251e-11
4.99381888518e-11
4.99348454131e-11
4.99313004663e-11
4.99274797873e-11
4.99233459339e-11
4.99190621779e-11
4.99147574064e-11
4.99105420584e-11
4.99067933105e-11
4.9902823527e-11
4.98987840307e-11
4.98947189823e-11
4.98906140214e-11
4.98865840011e-11
4.9882665263e-11
4.98790011285e-11
4.98755109971e-11
4.98720742684e-11
4.98685365865e-11
4.98648426767e-11
4.98609845591e-11
4.9856937242e-11
4.98527291024e-11
4.9848469418e-11
4.98441850414e-11
4.98398965005e-11
4.98356201904e-11
4.98313771786e-11
4.98271987743e-11
4.9823093554e-11
4.98190931599e-11
4.98152535142e-11
4.98116577786e-11
4.98084268782e-11
4.98057363381e-11
4.98037442127e-11
4.98023956993e-11
4.98005485315e-11
4.97966816497e-11
4.97914329514e-11
4.97861746234e-11
4.97813216927e-11
4.9776749507e-11
4.97725396726e-11
4.97685904948e-11
4.97646014366e-11
4.97604613912e-11
4.97560937472e-11
4.97515529473e-11
4.97468884869e-11
4.97421226456e-11
4.9737289285e-11
4.97325527951e-11
4.97284381608e-11
4.97241825869e-11
4.97199313457e-11
4.97156478409e-11
4.97114626031e-11
4.97074097153e-11
4.97035079308e-11
4.96997620136e-11
4.96961008522e-11
4.96924627484e-11
4.96887858208e-11
4.96850266895e-11
4.96811741309e-11
4.96772616112e-11
4.96733419236e-11
4.96693707165e-11
4.96654098583e-11
4.96614782091e-11
4.96574241689e-11
4.96534499788e-11
4.96494834639e-11
4.96454199592e-11
4.96414547518e-11
4.96375282274e-11
4.96336047867e-11
4.96296775501e-11
4.96259945379e-11
4.96223414359e-11
4.96185599407e-11
4.96149062324e-11
4.96112851772e-11
4.96079539227e-11
4.96043590666e-11
4.96006042935e-11
4.95972024815e-11
4.95935561008e-11
4.95901628968e-11
4.95865948718e-11
4.95829816797e-11
4.95792992762e-11
4.95755874263e-11
4.95717951017e-11
4.95679193632e-11
4.95639967115e-11
4.95601012364e-11
4.95562214455e-11
4.95522659798e-11
4.95486928862e-11
4.95448814806e-11
4.95407163314e-11
4.95362058934e-11
4.95314195431e-11
4.95265545262e-11
4.9521546124e-11
4.95164665272e-11
4.95114421854e-11
4.95070401434e-11
4.95027484567e-11
4.94987342392e-11
4.94949918227e-11
4.9491417528e-11
4.94879330454e-11
4.94844607154e-11
4.94808772427e-11
4.94771366999e-11
4.9473274419e-11
4.94693158781e-11
4.94652708423e-11
4.94611736844e-11
4.94570275518e-11
4.94528205676e-11
4.94485636382e-11
4.94443109916e-11
4.94401024448e-11
4.94359868062e-11
4.94319925217e-11
4.94281193272e-11
4.94242870454e-11
4.9420399053e-11
4.94168767113e-11
4.94131641145e-11
4.94094404454e-11
4.94057506553e-11
4.94020907445e-11
4.93984565882e-11
4.9394790815e-11
4.93910978448e-11
4.93873329282e-11
4.93834688548e-11
4.93794662779e-11
4.93752714232e-11
4.93708465669e-11
4.9366191726e-11
4.93612462671e-11
4.93565127085e-11
4.93519253185e-11
4.93470156901e-11
4.93423008787e-11
4.93378649766e-11
4.93337222775e-11
4.93298110059e-11
4.93261524245e-11
4.93225848205e-11
4.9319017164e-11
4.93154051725e-11
4.93116854615e-11
4.93077779171e-11
4.93037097153e-11
4.92996438867e-11
4.92953709296e-11
4.92910179243e-11
4.92867121918e-11
4.92824094014e-11
4.92786561084e-11
4.92753357814e-11
4.92730373608e-11
4.92713795883e-11
4.9270147038e-11
4.9267190872e-11
4.92625039598e-11
4.92576786976e-11
4.92533269849e-11
4.92486862781e-11
4.92441080527e-11
4.92400665926e-11
4.92356119776e-11
4.92308505906e-11
4.92256902397e-11
4.92202196617e-11
4.92146071367e-11
4.92090542085e-11
4.92040276979e-11
4.91996172793e-11
4.91956758258e-11
4.91924183608e-11
4.91893018044e-11
4.91867221458e-11
4.91848036544e-11
4.91838507283e-11
4.91816908634e-11
4.91782009947e-11
4.91734399688e-11
4.91685275341e-11
4.91633426092e-11
4.9159174014e-11
4.91550554209e-11
4.91508925841e-11
4.91468735411e-11
4.91429399922e-11
4.91390079019e-11
4.91351434465e-11
4.91313993773e-11
4.91278092698e-11
4.91243356e-11
4.91208989666e-11
4.9117458305e-11
4.91139186034e-11
4.91102452087e-11
4.91063934963e-11
4.91023420029e-11
4.90980505294e-11
4.90934856645e-11
4.90886602339e-11
4.90836315849e-11
4.90785316557e-11
4.907355933e-11
4.90689010375e-11
4.90646959723e-11
4.90609670957e-11
4.90574213076e-11
4.90538395762e-11
4.90501475967e-11
4.90461689651e-11
4.90418594464e-11
4.90372249663e-11
4.90324678757e-11
4.90276953479e-11
4.90231479759e-11
4.90188948885e-11
4.90150161855e-11
4.90114010045e-11
4.90078731861e-11
4.90043923582e-11
4.90008541576e-11
4.8997245743e-11
4.89935690311e-11
4.89898337353e-11
4.89860950498e-11
4.89823152877e-11
4.89784844567e-11
4.8974486086e-11
4.89703788296e-11
4.89660520902e-11
4.8961733418e-11
4.89569388796e-11
4.8952206677e-11
4.89474462354e-11
4.89427817126e-11
4.89382205833e-11
4.89337727553e-11
4.89294476887e-11
4.89252413385e-11
4.89210942915e-11
4.89169620348e-11
4.89128233477e-11
4.89086267165e-11
4.89043871903e-11
4.8900093302e-11
4.88957662106e-11
4.88914343176e-11
4.88871447475e-11
4.88829030222e-11
4.88784784628e-11
4.88743123199e-11
4.88704935173e-11
4.88663521071e-11
4.88621749699e-11
4.88578555814e-11
4.88534629822e-11
4.88490250739e-11
4.88446373728e-11
4.88404730297e-11
4.88365877127e-11
4.88329214861e-11
4.8829385888e-11
4.88257683693e-11
4.88219052826e-11
4.88176533743e-11
4.88132509061e-11
4.8809113116e-11
4.88047224164e-11
4.88004887595e-11
4.8796391161e-11
4.87923580828e-11
4.87883837688e-11
4.87843663617e-11
4.87803128893e-11
4.87762694927e-11
4.87720952383e-11
4.8767887243e-11
4.87634898306e-11
4.87590210686e-11
4.8754425743e-11
4.87496752698e-11
4.87446812692e-11
4.8739621086e-11
4.87344893347e-11
4.87293908065e-11
4.87243746714e-11
4.87196186992e-11
4.87151222667e-11
4.87108494702e-11
4.87066878508e-11
4.87022503081e-11
4.86976699026e-11
4.86928328127e-11
4.86881209809e-11
4.86835855534e-11
4.86797667511e-11
4.867603563e-11
4.86724491783e-11
4.86688541548e-11
4.86653981134e-11
4.86617346766e-11
4.86576440753e-11
4.86532669961e-11
4.86486769404e-11
4.86440030333e-11
4.86393194364e-11
4.86346253876e-11
4.86299386618e-11
4.86252488623e-11
4.86205908005e-11
4.86160599637e-11
4.86116638807e-11
4.86073469205e-11
4.86035447565e-11
4.86001089854e-11
4.85966638472e-11
4.85931813738e-11
4.85896738715e-11
4.85861610527e-11
4.85825707791e-11
4.85788756505e-11
4.85750275789e-11
4.85710029313e-11
4.85668006244e-11
4.85623775869e-11
4.85577254186e-11
4.85528873772e-11
4.85479245979e-11
4.85428573362e-11
4.8537692508e-11
4.85324978261e-11
4.8527333317e-11
4.8522334127e-11
4.8517685049e-11
4.85126511039e-11
4.85075554406e-11
4.85025646911e-11
4.84976437354e-11
4.84928748699e-11
4.84882704701e-11
4.84834856256e-11
4.84785522889e-11
4.84734080559e-11
4.84683646475e-11
4.84634726953e-11
4.84588764549e-11
4.84551838804e-11
4.84530428737e-11
4.84508893547e-11
4.84448487584e-11
4.84397634634e-11
4.84376770372e-11
4.84349086482e-11
4.84300644602e-11
4.84243079679e-11
4.84178953529e-11
4.84115081177e-11
4.84061508773e-11
4.84029206576e-11
4.84007216558e-11
4.83984040196e-11
4.8392957233e-11
4.83904614597e-11
4.83877527224e-11
4.83818285464e-11
4.83763291623e-11
4.83724478569e-11
4.83692326137e-11
4.83649017619e-11
4.83601939445e-11
4.83564370974e-11
4.83513452125e-11
4.83460411551e-11
4.83402234567e-11
4.83340754622e-11
4.8328053445e-11
4.83223640171e-11
4.83169149389e-11
4.83115447985e-11
4.83063078283e-11
4.8301409134e-11
4.82966272107e-11
4.82920266745e-11
4.82873414435e-11
4.82827594203e-11
4.82784728963e-11
4.8274314488e-11
4.82709076861e-11
4.8267588153e-11
4.82641653275e-11
4.82609945028e-11
4.82573395831e-11
4.82542692264e-11
4.82510612041e-11
4.82480508989e-11
4.82438883757e-11
4.82388845328e-11
4.82331584175e-11
4.82268169841e-11
4.82206749484e-11
4.82158660683e-11
4.82118748064e-11
4.82083450067e-11
4.82048521445e-11
4.82009361121e-11
4.81963511389e-11
4.81915253283e-11
4.81870051544e-11
4.81830083877e-11
4.81792303237e-11
4.81751780843e-11
4.81704870236e-11
4.81651260015e-11
4.81595283323e-11
4.8153877035e-11
4.81482293691e-11
4.81427367017e-11
4.81376515744e-11
4.8132862925e-11
4.81286342103e-11
4.81239409598e-11
4.81192220439e-11
4.81149593612e-11
4.81109696457e-11
4.81067940196e-11
4.81021515153e-11
4.80973258494e-11
4.8092167474e-11
4.80870020226e-11
4.8081941182e-11
4.80768475412e-11
4.80716836774e-11
4.80666196627e-11
4.8061739369e-11
4.80569118408e-11
4.80516604715e-11
4.80464800388e-11
4.80411408635e-11
4.80354098037e-11
4.80297844453e-11
4.80244565881e-11
4.80193034718e-11
4.80144401449e-11
4.80095991144e-11
4.80047294652e-11
4.79997071715e-11
4.79945812014e-11
4.79892766997e-11
4.79840051385e-11
4.79786107458e-11
4.7973442018e-11
4.7968364913e-11
4.79633347745e-11
4.79591940266e-11
4.795440551e-11
4.7949584153e-11
4.79446557456e-11
4.79396783686e-11
4.79347309075e-11
4.79298661795e-11
4.79251002918e-11
4.79204025853e-11
4.79157178745e-11
4.79109494772e-11
4.79060639674e-11
4.79010779633e-11
4.78960094301e-11
4.78909042945e-11
4.78857945832e-11
4.7880683418e-11
4.78755323309e-11
4.78703880777e-11
4.78652613454e-11
4.78601590826e-11
4.78550813668e-11
4.78500114778e-11
4.78449480298e-11
4.78399023214e-11
4.78348656599e-11
4.78297842723e-11
4.78246412988e-11
4.78194839364e-11
4.78143435977e-11
4.78091856535e-11
4.78040034518e-11
4.77987756607e-11
4.77934990289e-11
4.7788175731e-11
4.77828519153e-11
4.77775612976e-11
4.77722868517e-11
4.77670737606e-11
4.77618947785e-11
4.77567539478e-11
4.77516549767e-11
4.77465611416e-11
4.77413146715e-11
4.7736033625e-11
4.77306532296e-11
4.77251317935e-11
4.77195225934e-11
4.77137458279e-11
4.77078674931e-11
4.77020725203e-11
4.76964124917e-11