/*--------------------------------*- C++ -*----------------------------------*\
  =========                 |
  \\      /  F ield         | OpenFOAM: The Open Source CFD Toolbox
   \\    /   O peration     | Website:  https://openfoam.org
    \\  /    A nd           | Version:  6
     \\/     M anipulation  |
\*---------------------------------------------------------------------------*/
FoamFile
{
    version     2.0;
    format      ascii;
    class       volScalarField;
    location    "0.0005";
    object      OH;
}
// * * * * * * * * * * * * * * * * * * * * * * * * * * * * * * * * * * * * * //

dimensions      [0 0 0 0 0 0 0];

internalField   nonuniform List<scalar> 
32000
(
6.46312990232e-05
6.46313263297e-05
6.46312818007e-05
6.46312297406e-05
6.46311459864e-05
6.46310994089e-05
6.46310118092e-05
6.46309140564e-05
6.46307922139e-05
6.4630704737e-05
6.46305576063e-05
6.46304844623e-05
6.46303438843e-05
6.46302117622e-05
6.46299998651e-05
6.46298095941e-05
6.46296945392e-05
6.46294902108e-05
6.46292837714e-05
6.46291542325e-05
6.46289021149e-05
6.46285837808e-05
6.46284267298e-05
6.46282907335e-05
6.46280498865e-05
6.46277693477e-05
6.46275525295e-05
6.4627204587e-05
6.46268347612e-05
6.46265688453e-05
6.46264076458e-05
6.46261535876e-05
6.46257976142e-05
6.46255095967e-05
6.46250875554e-05
6.46248095968e-05
6.46245599443e-05
6.46240071119e-05
6.46235598247e-05
6.46233551923e-05
6.46231083821e-05
6.46227270823e-05
6.46223994092e-05
6.46218935996e-05
6.4621453022e-05
6.46210546503e-05
6.46207494499e-05
6.46203458418e-05
6.46196882257e-05
6.46192829788e-05
6.46190077315e-05
6.46185704135e-05
6.46181216314e-05
6.46177520384e-05
6.46173576787e-05
6.46169919547e-05
6.46161488131e-05
6.46155437223e-05
6.46150089897e-05
6.46145516122e-05
6.46142404436e-05
6.4613675587e-05
6.46128195183e-05
6.46123778259e-05
6.46121568643e-05
6.46117885809e-05
6.46112956803e-05
6.46102194745e-05
6.46096171736e-05
6.46089598582e-05
6.46084811217e-05
6.46079160996e-05
6.46074795834e-05
6.46071812095e-05
6.46066346241e-05
6.46059548237e-05
6.46053691861e-05
6.46042887618e-05
6.46036766411e-05
6.46031267421e-05
6.46026691814e-05
6.46019390909e-05
6.46015041682e-05
6.4600996142e-05
6.45999615566e-05
6.45993993607e-05
6.45987037885e-05
6.45982668671e-05
6.4597868006e-05
6.45973235504e-05
6.45961359207e-05
6.45947557684e-05
6.45938942139e-05
6.45931702384e-05
6.45927409324e-05
6.45924387412e-05
6.45920050684e-05
6.45913781987e-05
6.45904796684e-05
6.45888624303e-05
6.45879426965e-05
6.45875697927e-05
6.45871142525e-05
6.45865066245e-05
6.45860744855e-05
6.45850146601e-05
6.45832426538e-05
6.4582276365e-05
6.45817142535e-05
6.45813773309e-05
6.45807472528e-05
6.45795937708e-05
6.45782275359e-05
6.45775645455e-05
6.45770911464e-05
6.45767019833e-05
6.45754492563e-05
6.45732340014e-05
6.45717867299e-05
6.45709583891e-05
6.45701834797e-05
6.45695010786e-05
6.45687120719e-05
6.45680135528e-05
6.45662477858e-05
6.45647096706e-05
6.45631521542e-05
6.45614219951e-05
6.45600095294e-05
6.45590563615e-05
6.45584169295e-05
6.45575881876e-05
6.45567665657e-05
6.45559804929e-05
6.45545206775e-05
6.45524643712e-05
6.45516473256e-05
6.45511453476e-05
6.45499243146e-05
6.45487002939e-05
6.45464847625e-05
6.45445726622e-05
6.4542983573e-05
6.45421077918e-05
6.45414313154e-05
6.45405626982e-05
6.45396923264e-05
6.45381341917e-05
6.45368596082e-05
6.45351262146e-05
6.45339532967e-05
6.45332704006e-05
6.45318168451e-05
6.4530908332e-05
6.45300221406e-05
6.45294481086e-05
6.4528179277e-05
6.45256000275e-05
6.4523355234e-05
6.45214527383e-05
6.45200140618e-05
6.45188957197e-05
6.45177378126e-05
6.45166329227e-05
6.45156190996e-05
6.45145907412e-05
6.451335354e-05
6.45116788372e-05
6.45102700758e-05
6.45093098113e-05
6.45083584793e-05
6.45069426925e-05
6.45051406551e-05
6.45030622428e-05
6.4501133701e-05
6.44993789307e-05
6.44978068547e-05
6.44964971833e-05
6.44951428283e-05
6.44934643303e-05
6.44918284981e-05
6.44906333393e-05
6.4489719639e-05
6.44888669385e-05
6.44865911412e-05
6.44848284913e-05
6.44835759857e-05
6.44827726527e-05
6.44820488168e-05
6.44802150711e-05
6.44775727137e-05
6.44760234859e-05
6.44752841709e-05
6.44739603708e-05
6.44716486532e-05
6.44699204279e-05
6.44689697054e-05
6.44684021083e-05
6.4467070059e-05
6.44651650982e-05
6.44628656883e-05
6.44607381388e-05
6.44588736148e-05
6.44574349937e-05
6.44561719318e-05
6.44548060133e-05
6.44531424917e-05
6.44511957804e-05
6.44490702311e-05
6.44471326979e-05
6.44456438903e-05
6.44443874398e-05
6.44433814024e-05
6.44424847354e-05
6.44410914703e-05
6.44392563775e-05
6.44371770855e-05
6.443498748e-05
6.44329359323e-05
6.44308413351e-05
6.44290486998e-05
6.44277053064e-05
6.44256002743e-05
6.44244248782e-05
6.44232611978e-05
6.44218725e-05
6.44202351734e-05
6.44182117666e-05
6.44161882822e-05
6.44142242305e-05
6.44126626909e-05
6.44113747203e-05
6.4410602353e-05
6.44096821941e-05
6.44070884327e-05
6.44048647213e-05
6.4403537449e-05
6.44030889797e-05
6.44015734411e-05
6.43990645257e-05
6.43967195675e-05
6.43947378876e-05
6.43929260454e-05
6.43911610465e-05
6.43893416346e-05
6.4387454322e-05
6.43856597766e-05
6.43839822548e-05
6.43822764241e-05
6.43804945634e-05
6.43785469351e-05
6.43764478059e-05
6.43739841376e-05
6.43715311803e-05
6.43694913696e-05
6.43680891354e-05
6.43671082677e-05
6.43661362296e-05
6.43651465915e-05
6.43640693869e-05
6.43613555552e-05
6.43598368958e-05
6.4358377751e-05
6.43572366537e-05
6.43556975222e-05
6.43528680711e-05
6.4350252594e-05
6.43479244404e-05
6.4345846143e-05
6.43438896663e-05
6.43418873785e-05
6.43398394757e-05
6.43379928416e-05
6.43364263713e-05
6.43348700826e-05
6.43336827212e-05
6.43324031962e-05
6.43309711804e-05
6.43294831904e-05
6.43274640672e-05
6.43254854135e-05
6.43232153049e-05
6.43210579857e-05
6.43187742426e-05
6.4316646186e-05
6.43147192284e-05
6.43129346015e-05
6.43112244601e-05
6.43094094608e-05
6.4307524595e-05
6.43054687864e-05
6.43033808877e-05
6.43011517937e-05
6.42992240869e-05
6.42975947823e-05
6.42959170936e-05
6.42942586252e-05
6.42924162453e-05
6.42901211133e-05
6.42875951347e-05
6.42851292937e-05
6.42833447634e-05
6.42819766103e-05
6.42807949067e-05
6.42796344743e-05
6.427832003e-05
6.42767229415e-05
6.42746899395e-05
6.42722472021e-05
6.42695322604e-05
6.42669422712e-05
6.42646843508e-05
6.42627524696e-05
6.42610077503e-05
6.42593853082e-05
6.42575650731e-05
6.42557482136e-05
6.42538806433e-05
6.42514598808e-05
6.42492935498e-05
6.42472324546e-05
6.42452621181e-05
6.424332906e-05
6.42413069441e-05
6.4239100179e-05
6.42365960928e-05
6.42338443664e-05
6.42310738522e-05
6.42286975101e-05
6.42267924419e-05
6.42252555637e-05
6.4224057481e-05
6.42230755267e-05
6.42219640653e-05
6.42206487938e-05
6.42190614751e-05
6.42172044777e-05
6.42150768305e-05
6.42127066133e-05
6.42101411519e-05
6.42074920563e-05
6.42046900528e-05
6.42020326377e-05
6.41997682999e-05
6.41979186532e-05
6.41963694447e-05
6.4195025166e-05
6.41936739556e-05
6.41921021037e-05
6.41900827746e-05
6.41878003981e-05
6.41853762133e-05
6.41830250698e-05
6.41807816352e-05
6.41785542525e-05
6.41762378412e-05
6.41737676856e-05
6.41711903469e-05
6.41686357913e-05
6.41660557146e-05
6.41636122766e-05
6.41615044089e-05
6.41596060586e-05
6.41580339737e-05
6.4157019766e-05
6.41559551199e-05
6.41547721214e-05
6.41514770334e-05
6.41489218359e-05
6.41474854202e-05
6.41466571207e-05
6.41448429986e-05
6.4142083031e-05
6.41394374887e-05
6.41367535372e-05
6.41341389131e-05
6.41315596317e-05
6.4129017611e-05
6.41264448258e-05
6.41239703549e-05
6.41219159876e-05
6.41203842615e-05
6.41189994442e-05
6.41173631789e-05
6.41154190092e-05
6.41131492712e-05
6.41107044014e-05
6.41083980025e-05
6.41062933566e-05
6.4104212338e-05
6.41022184218e-05
6.41001935239e-05
6.40979264323e-05
6.40955372111e-05
6.40930769862e-05
6.40906605579e-05
6.40883795354e-05
6.40860368327e-05
6.40836971928e-05
6.40814535588e-05
6.40793213492e-05
6.40772426072e-05
6.40751842665e-05
6.40730680281e-05
6.40709136025e-05
6.40684842009e-05
6.40661582172e-05
6.40639007669e-05
6.40617494167e-05
6.40596798832e-05
6.40575913823e-05
6.40553543575e-05
6.40528252552e-05
6.40500351931e-05
6.40472038603e-05
6.40446923291e-05
6.40426455312e-05
6.40408568725e-05
6.4039365743e-05
6.4037788608e-05
6.40356473877e-05
6.40334385848e-05
6.40311230304e-05
6.40287414681e-05
6.40263774444e-05
6.40240580282e-05
6.4021756046e-05
6.40196097647e-05
6.40171006137e-05
6.40139035611e-05
6.40114868614e-05
6.40093630335e-05
6.40072748225e-05
6.40051918e-05
6.40031485853e-05
6.4001163191e-05
6.39991935852e-05
6.39971352279e-05
6.3994901619e-05
6.39926180511e-05
6.39901388263e-05
6.3987108931e-05
6.39836340657e-05
6.39800316875e-05
6.39766272671e-05
6.39739684034e-05
6.39721698045e-05
6.39710066924e-05
6.3969750783e-05
6.39687169374e-05
6.39672227079e-05
6.39653157737e-05
6.39625912341e-05
6.39595929824e-05
6.39565825945e-05
6.3953941246e-05
6.39522225059e-05
6.3950788697e-05
6.39482401185e-05
6.39440299031e-05
6.39400554685e-05
6.39378888408e-05
6.39363379358e-05
6.39348170045e-05
6.39328738488e-05
6.39299429828e-05
6.39286426163e-05
6.3927301716e-05
6.39254588916e-05
6.39233742764e-05
6.39208996288e-05
6.39181496923e-05
6.39153571358e-05
6.3912477135e-05
6.3909198683e-05
6.39057062491e-05
6.39024481744e-05
6.38998040217e-05
6.389776246e-05
6.3896057023e-05
6.38943127154e-05
6.38924966741e-05
6.38905358679e-05
6.38883109715e-05
6.38861123339e-05
6.38838194591e-05
6.38812091697e-05
6.38784025106e-05
6.38755216147e-05
6.38729093724e-05
6.38704471111e-05
6.38668203787e-05
6.3864711459e-05
6.38621717118e-05
6.38608350066e-05
6.38586224954e-05
6.38567088672e-05
6.38537271957e-05
6.38515402192e-05
6.3848252841e-05
6.38466895022e-05
6.38439652774e-05
6.38420463291e-05
6.38397507276e-05
6.38371016945e-05
6.38347377207e-05
6.38317897746e-05
6.38286780954e-05
6.38255038209e-05
6.38222922598e-05
6.38193649188e-05
6.38167222453e-05
6.38144831354e-05
6.38125585815e-05
6.38102533677e-05
6.38065041258e-05
6.38048307661e-05
6.38019216042e-05
6.37991142634e-05
6.37971489525e-05
6.37952011934e-05
6.37929032426e-05
6.37903368682e-05
6.3787825144e-05
6.37854389939e-05
6.37834066017e-05
6.37819796005e-05
6.37810795354e-05
6.37786072165e-05
6.37743474373e-05
6.37700834892e-05
6.37663900587e-05
6.37635794607e-05
6.37619447059e-05
6.37607639645e-05
6.37593533402e-05
6.37571433505e-05
6.37552330975e-05
6.37516554796e-05
6.3748860399e-05
6.3746342355e-05
6.37436516978e-05
6.37405739086e-05
6.37377141553e-05
6.37346313794e-05
6.37315834624e-05
6.37288826125e-05
6.37264342132e-05
6.37251490891e-05
6.37220822963e-05
6.3719744048e-05
6.37168094966e-05
6.3713923965e-05
6.3711337096e-05
6.37085258844e-05
6.37053305873e-05
6.3702322487e-05
6.36995924655e-05
6.36969872988e-05
6.36947036517e-05
6.36926429239e-05
6.36908533805e-05
6.36890055065e-05
6.36864911812e-05
6.36836139911e-05
6.36816526159e-05
6.36797300158e-05
6.36766784741e-05
6.36732093488e-05
6.36688114944e-05
6.36645734635e-05
6.36619865561e-05
6.36602676761e-05
6.36581861618e-05
6.36565930808e-05
6.36541308769e-05
6.36520729067e-05
6.36481310697e-05
6.36446052232e-05
6.36420291912e-05
6.36396917818e-05
6.363714262e-05
6.36344762313e-05
6.36318720724e-05
6.36298273927e-05
6.36279079143e-05
6.3625480293e-05
6.36225049633e-05
6.36190481983e-05
6.36153485313e-05
6.3612125493e-05
6.36099545834e-05
6.36083852533e-05
6.36063150436e-05
6.36036673529e-05
6.36017740448e-05
6.35982196454e-05
6.35946068102e-05
6.35911361976e-05
6.35882226275e-05
6.35856958616e-05
6.35830763939e-05
6.3580021022e-05
6.35763633492e-05
6.35726800812e-05
6.35699236456e-05
6.35683525291e-05
6.35674495272e-05
6.35656558781e-05
6.35630027506e-05
6.3560455669e-05
6.35584102366e-05
6.35562440876e-05
6.35518737126e-05
6.35475823701e-05
6.35439735374e-05
6.3540766532e-05
6.35383633262e-05
6.35362274528e-05
6.35338427233e-05
6.35319793344e-05
6.35301351101e-05
6.35276961639e-05
6.35233782246e-05
6.35195980141e-05
6.35166930969e-05
6.35139003837e-05
6.35111406587e-05
6.35081002525e-05
6.35049763762e-05
6.3501923743e-05
6.34989494457e-05
6.34961940573e-05
6.34939003593e-05
6.34918388273e-05
6.34896842796e-05
6.34875291551e-05
6.34852305862e-05
6.34824429215e-05
6.34793042893e-05
6.34762401841e-05
6.34734471635e-05
6.34707171666e-05
6.34679446076e-05
6.34650335043e-05
6.34619703306e-05
6.34588645174e-05
6.34556901612e-05
6.34524666821e-05
6.34493526939e-05
6.34466131199e-05
6.34442372671e-05
6.3441929534e-05
6.34394847273e-05
6.34367867314e-05
6.34338210101e-05
6.34305864964e-05
6.34273270686e-05
6.34241033592e-05
6.34208246866e-05
6.34177462241e-05
6.34149112451e-05
6.34122020926e-05
6.34093216039e-05
6.34063861793e-05
6.34033726943e-05
6.34002624389e-05
6.33969090936e-05
6.3393404427e-05
6.33897537928e-05
6.33864842059e-05
6.33836400356e-05
6.338140906e-05
6.33796337306e-05
6.33779134555e-05
6.33756613544e-05
6.33726897233e-05
6.33696420693e-05
6.33667400405e-05
6.33644392753e-05
6.33621512799e-05
6.33594581253e-05
6.33559061528e-05
6.33522847017e-05
6.3349233606e-05
6.33473598574e-05
6.33454664843e-05
6.33438881893e-05
6.33417163315e-05
6.33384689723e-05
6.33332968991e-05
6.33283502398e-05
6.3324686061e-05
6.33220209286e-05
6.3319549551e-05
6.33168198664e-05
6.33140006649e-05
6.33110468516e-05
6.33081429968e-05
6.33055465424e-05
6.33027510912e-05
6.32997947613e-05
6.32966764741e-05
6.32935712889e-05
6.32903380305e-05
6.328717136e-05
6.32841344325e-05
6.32810892958e-05
6.32782175883e-05
6.32754867234e-05
6.32727322958e-05
6.32698446164e-05
6.32668339156e-05
6.32636688405e-05
6.32604271205e-05
6.32571710215e-05
6.32540162187e-05
6.32510133874e-05
6.32481488349e-05
6.32453353741e-05
6.32425443513e-05
6.32397007067e-05
6.32371182399e-05
6.32345107094e-05
6.32318846104e-05
6.32290471482e-05
6.32258056722e-05
6.32223924753e-05
6.32190235635e-05
6.32158614538e-05
6.32127785214e-05
6.32097763941e-05
6.32066709601e-05
6.32034980962e-05
6.32003712407e-05
6.31973604302e-05
6.31944366008e-05
6.31915807476e-05
6.31888542135e-05
6.3186080315e-05
6.31830838192e-05
6.31801137592e-05
6.31773015023e-05
6.31742577196e-05
6.31710858793e-05
6.31676538244e-05
6.31644499733e-05
6.31613556073e-05
6.31584996508e-05
6.31558139713e-05
6.31531326442e-05
6.31503070331e-05
6.3147335419e-05
6.31441431186e-05
6.31407507234e-05
6.31372756746e-05
6.31337443748e-05
6.31302873084e-05
6.31270055323e-05
6.31239695224e-05
6.3121066825e-05
6.31182611047e-05
6.31156096384e-05
6.31127204045e-05
6.31097803623e-05
6.31068487862e-05
6.31039118062e-05
6.31009453579e-05
6.30978592034e-05
6.3094828403e-05
6.30918230931e-05
6.30890532477e-05
6.30860023606e-05
6.30827001307e-05
6.30791319085e-05
6.30754888813e-05
6.30719961383e-05
6.30688258947e-05
6.30659354216e-05
6.30631647131e-05
6.3060364873e-05
6.3057538956e-05
6.30546755452e-05
6.30516982662e-05
6.30486631243e-05
6.30454434359e-05
6.30420860514e-05
6.30386839804e-05
6.30352762127e-05
6.30319975198e-05
6.30290645274e-05
6.30262325241e-05
6.30234807893e-05
6.30207901018e-05
6.30180997975e-05
6.30152799723e-05
6.30123212094e-05
6.30092575637e-05
6.30061481094e-05
6.30030431583e-05
6.29999602646e-05
6.29968772185e-05
6.29937238522e-05
6.29904438461e-05
6.29870372608e-05
6.29834984742e-05
6.29798843226e-05
6.29762725774e-05
6.29727647909e-05
6.29694514538e-05
6.29663953087e-05
6.2963532951e-05
6.29607771624e-05
6.2958024325e-05
6.29551715918e-05
6.29521610813e-05
6.2948928313e-05
6.29456750701e-05
6.29424572013e-05
6.29393569142e-05
6.29363682157e-05
6.29332086567e-05
6.29298960367e-05
6.29266289833e-05
6.29235463551e-05
6.29207252344e-05
6.29182168618e-05
6.29158389249e-05
6.29134190978e-05
6.29108719967e-05
6.29080708531e-05
6.290499028e-05
6.29016068495e-05
6.28978465355e-05
6.28938796697e-05
6.28901181617e-05
6.28867363809e-05
6.28836083619e-05
6.28805186124e-05
6.287734378e-05
6.28740832754e-05
6.28707806422e-05
6.28675021205e-05
6.28642495469e-05
6.28609067662e-05
6.28573602008e-05
6.28538701749e-05
6.2850581485e-05
6.28475393198e-05
6.28446799717e-05
6.2841885916e-05
6.28390228094e-05
6.28359973078e-05
6.28327506545e-05
6.28292581644e-05
6.28255729653e-05
6.28218621324e-05
6.28183666235e-05
6.28152096466e-05
6.28124139336e-05
6.28096765098e-05
6.28068305498e-05
6.28038835429e-05
6.28006337832e-05
6.27970673024e-05
6.27930955395e-05
6.2789194994e-05
6.2785543029e-05
6.2782300487e-05
6.27793143599e-05
6.27767094464e-05
6.2774854889e-05
6.27736109888e-05
6.27726858295e-05
6.27712262611e-05
6.27686679215e-05
6.27641781766e-05
6.2758923655e-05
6.2753033228e-05
6.27475636764e-05
6.27428955253e-05
6.27394860048e-05
6.2736816182e-05
6.27350364601e-05
6.27338102743e-05
6.27331625757e-05
6.27316087707e-05
6.27293074564e-05
6.27260195886e-05
6.27219365274e-05
6.27179038681e-05
6.27139030795e-05
6.27101128845e-05
6.27066978395e-05
6.27035230705e-05
6.27004342118e-05
6.269730782e-05
6.26940765028e-05
6.26907217682e-05
6.26872363007e-05
6.2683655236e-05
6.26800321812e-05
6.26764118273e-05
6.26728150079e-05
6.26692464347e-05
6.26657510627e-05
6.26624709768e-05
6.26594950367e-05
6.26567611026e-05
6.26541960895e-05
6.26516922672e-05
6.26493214798e-05
6.26469338505e-05
6.26444148268e-05
6.26417173522e-05
6.2638790904e-05
6.26356073485e-05
6.26321516854e-05
6.26284966885e-05
6.26248126645e-05
6.26211129558e-05
6.26174271672e-05
6.26137354503e-05
6.26100465018e-05
6.26063625968e-05
6.26027170851e-05
6.25991419447e-05
6.25956121392e-05
6.25921620967e-05
6.25890375909e-05
6.25861694151e-05
6.25833716961e-05
6.25806215144e-05
6.2577778234e-05
6.25747452385e-05
6.25715975073e-05
6.25681693931e-05
6.25646253821e-05
6.25610338819e-05
6.25574263129e-05
6.25539110313e-05
6.25505983865e-05
6.25477233155e-05
6.2545163138e-05
6.25425901422e-05
6.2539933091e-05
6.25370964294e-05
6.25340290079e-05
6.25307222027e-05
6.25272435145e-05
6.25236791751e-05
6.25200974814e-05
6.25165441986e-05
6.25130634058e-05
6.25096492644e-05
6.25063202604e-05
6.25030395494e-05
6.24997833022e-05
6.24965356726e-05
6.2493289997e-05
6.24900512102e-05
6.24868313963e-05
6.24836436734e-05
6.24804879569e-05
6.2477348199e-05
6.24742023656e-05
6.24710501301e-05
6.24679040326e-05
6.24647433392e-05
6.24615207197e-05
6.24582310538e-05
6.24549465252e-05
6.24516908045e-05
6.24484624672e-05
6.24451873669e-05
6.2441868891e-05
6.2438438156e-05
6.24347502236e-05
6.24308756615e-05
6.24273983984e-05
6.24246477736e-05
6.24226330956e-05
6.24210302976e-05
6.24166480192e-05
6.24143923143e-05
6.24123153632e-05
6.24088156777e-05
6.24049549585e-05
6.24001267109e-05
6.23951423349e-05
6.23913182357e-05
6.23892246158e-05
6.23878263805e-05
6.23835669808e-05
6.23793807353e-05
6.23778297954e-05
6.23753078814e-05
6.23701478647e-05
6.23665694164e-05
6.2363989459e-05
6.23609817911e-05
6.23567154901e-05
6.23539171545e-05
6.23503468221e-05
6.23470375548e-05
6.23440212364e-05
6.23406871797e-05
6.23374115463e-05
6.23342586725e-05
6.23309368269e-05
6.23277181153e-05
6.23244166384e-05
6.2321248969e-05
6.23181462058e-05
6.23151300293e-05
6.23121433902e-05
6.23091629887e-05
6.23061558199e-05
6.23030657776e-05
6.22998468464e-05
6.22964733809e-05
6.22929404192e-05
6.22892488047e-05
6.22854538779e-05
6.2281668394e-05
6.22780948011e-05
6.22747303074e-05
6.22716479235e-05
6.22687716551e-05
6.22660490151e-05
6.22632064273e-05
6.22603594029e-05
6.22574393706e-05
6.22544625865e-05
6.22514226315e-05
6.22483775139e-05
6.22452118557e-05
6.22422637327e-05
6.22389733961e-05
6.2235660809e-05
6.22324353983e-05
6.22289681719e-05
6.22255605114e-05
6.22225122399e-05
6.22191803442e-05
6.22158982817e-05
6.22124783348e-05
6.22091000583e-05
6.22056897616e-05
6.22022182509e-05
6.21986125445e-05
6.21952670278e-05
6.21920889523e-05
6.21888076816e-05
6.21855698754e-05
6.21822108662e-05
6.21788409153e-05
6.21755325472e-05
6.21720049737e-05
6.2168550022e-05
6.21651042266e-05
6.21616744706e-05
6.21582735639e-05
6.21549248877e-05
6.21516157328e-05
6.21483210116e-05
6.21450225229e-05
6.21416646834e-05
6.21382512857e-05
6.21348531642e-05
6.21315693629e-05
6.21284556833e-05
6.21255194101e-05
6.21227245961e-05
6.21200156856e-05
6.21172926752e-05
6.21144900779e-05
6.21115134231e-05
6.21083049128e-05
6.21048812127e-05
6.21013313751e-05
6.20977633409e-05
6.20942962793e-05
6.20910140203e-05
6.20879180871e-05
6.20849466492e-05
6.20820225561e-05
6.20790949533e-05
6.20761299481e-05
6.20731067763e-05
6.20700014301e-05
6.20667593905e-05
6.20636781381e-05
6.20607899185e-05
6.20570451918e-05
6.20535402721e-05
6.20498890405e-05
6.2046261453e-05
6.20426110562e-05
6.20390165552e-05
6.20354267574e-05
6.20319293395e-05
6.20285869582e-05
6.2025415317e-05
6.20223124101e-05
6.20190858555e-05
6.20156895155e-05
6.20123019051e-05
6.20089596698e-05
6.20055359973e-05
6.2002159095e-05
6.1999155684e-05
6.19960729134e-05
6.1993111851e-05
6.19903162103e-05
6.19877439683e-05
6.19853099371e-05
6.19828587148e-05
6.19802468636e-05
6.19773973285e-05
6.19742666607e-05
6.19709693444e-05
6.1967603899e-05
6.19642673087e-05
6.196127082e-05
6.1958070945e-05
6.19547853094e-05
6.1951442938e-05
6.19480231387e-05
6.19446152533e-05
6.19412524519e-05
6.19380590698e-05
6.19349772958e-05
6.19319085552e-05
6.19287161961e-05
6.19253560975e-05
6.19218156693e-05
6.19180708068e-05
6.19141504432e-05
6.19101691116e-05
6.19061656549e-05
6.19021741582e-05
6.18982271775e-05
6.18943609424e-05
6.18906154472e-05
6.18870072417e-05
6.18835707926e-05
6.18803581691e-05
6.18774403191e-05
6.18749066096e-05
6.18728715793e-05
6.18714123581e-05
6.18704306054e-05
6.18690466346e-05
6.18660673172e-05
6.18619109982e-05
6.18576490642e-05
6.1853675134e-05
6.18499397614e-05
6.18465496371e-05
6.18434601884e-05
6.18404397218e-05
6.18373723106e-05
6.18341637606e-05
6.18308139339e-05
6.18273452133e-05
6.18237654478e-05
6.18201102791e-05
6.18165210675e-05
6.18134102212e-05
6.18102079376e-05
6.18070237202e-05
6.18038262444e-05
6.18007081508e-05
6.17976882105e-05
6.17947766345e-05
6.17919771814e-05
6.1789236066e-05
6.178650278e-05
6.17837236376e-05
6.178085429e-05
6.1777875095e-05
6.17748030205e-05
6.17716716611e-05
6.17684411166e-05
6.17651553257e-05
6.17618269272e-05
6.17583285117e-05
6.17548275892e-05
6.17512702072e-05
6.17475731573e-05
6.17439191364e-05
6.17402713176e-05
6.17366054229e-05
6.17329313217e-05
6.17294954786e-05
6.17261095545e-05
6.17226405111e-05
6.17193432998e-05
6.17161361851e-05
6.1713257127e-05
6.17101869138e-05
6.1707022441e-05
6.17041881945e-05
6.17011769401e-05
6.16984132364e-05
6.16955043423e-05
6.16925668375e-05
6.16895463182e-05
6.16864975757e-05
6.16833550509e-05
6.1680140532e-05
6.16768817617e-05
6.1673677099e-05
6.16705609931e-05
6.16674636576e-05
6.1664741021e-05
6.16618939799e-05
6.16588250752e-05
6.16555327438e-05
6.16520578955e-05
6.16485378417e-05
6.16449202601e-05
6.16412572637e-05
6.16376468304e-05
6.16345013889e-05
6.16314584777e-05
6.16286433728e-05
6.16260498904e-05
6.16235974719e-05
6.16212166921e-05
6.16188315485e-05
6.161633253e-05
6.16136604586e-05
6.16108184489e-05
6.16078125427e-05
6.16046458633e-05
6.16013474247e-05
6.15979321416e-05
6.15944056199e-05
6.15907890064e-05
6.15871389608e-05
6.15835076295e-05
6.15799512338e-05
6.15765134446e-05
6.15732089549e-05
6.15699819735e-05
6.15667583249e-05
6.15638812085e-05
6.15608933593e-05
6.15579425452e-05
6.15550591674e-05
6.15522354606e-05
6.15494635313e-05
6.15466904215e-05
6.15439118965e-05
6.15410861063e-05
6.15381840289e-05
6.15351670762e-05
6.15319859917e-05
6.15286056529e-05
6.15250222453e-05
6.15211906073e-05
6.15175091038e-05
6.15139394525e-05
6.15101305172e-05
6.15064997754e-05
6.15031236747e-05
6.15000161292e-05
6.1497124939e-05
6.1494451859e-05
6.1491858385e-05
6.14892551938e-05
6.1486586423e-05
6.14837842652e-05
6.1480772253e-05
6.14775609113e-05
6.14742790824e-05
6.147077397e-05
6.1467161084e-05
6.14635793988e-05
6.14600151569e-05
6.14569527772e-05
6.14543037861e-05
6.14525320209e-05
6.14512961084e-05
6.14503895424e-05
6.14481581586e-05
6.14445202349e-05
6.14407084383e-05
6.14372662414e-05
6.14335843849e-05
6.14299774496e-05
6.14268452306e-05
6.14234339561e-05
6.14198235183e-05
6.14159394791e-05
6.14118312623e-05
6.1407622695e-05
6.14034715389e-05
6.13997490431e-05
6.1396528477e-05
6.13937055457e-05
6.13914240396e-05
6.13892699018e-05
6.13874944704e-05
6.13861585311e-05
6.13854612468e-05
6.13838643642e-05
6.13812278905e-05
6.13775375683e-05
6.13735375179e-05
6.13692183011e-05
6.13655898429e-05
6.13619121686e-05
6.13581731772e-05
6.1354550912e-05
6.1350990877e-05
6.13474800734e-05
6.13440777291e-05
6.13408397859e-05
6.13378257593e-05
6.1334998961e-05
6.13323149801e-05
6.13297067442e-05
6.13271069454e-05
6.13244609102e-05
6.13217343415e-05
6.13188903943e-05
6.13158991926e-05
6.13127303039e-05
6.13093813381e-05
6.13058890717e-05
6.13023410165e-05
6.12988729958e-05
6.12956246199e-05
6.1292710156e-05
6.12901627273e-05
6.12877833843e-05
6.12854117954e-05
6.12829725247e-05
6.12803007966e-05
6.12773247111e-05
6.12740128172e-05
6.12704871673e-05
6.12668271116e-05
6.12632416699e-05
6.12598162861e-05
6.12566700658e-05
6.12537544488e-05
6.12509687977e-05
6.12483058966e-05
6.12456900798e-05
6.12430954145e-05
6.12405102263e-05
6.12379123974e-05
6.12353204112e-05
6.12326986709e-05
6.12300328888e-05
6.12272500784e-05
6.12243755636e-05
6.12213294939e-05
6.12182630075e-05
6.1214824637e-05
6.12114067314e-05
6.12079583781e-05
6.12045938291e-05
6.12013402103e-05
6.11982251174e-05
6.11952680315e-05
6.11924652111e-05
6.11897582235e-05
6.11870891545e-05
6.11844112939e-05
6.11816599981e-05
6.11788277123e-05
6.11759039696e-05
6.11729137935e-05
6.11698952115e-05
6.11669007603e-05
6.11639486091e-05
6.11608840193e-05
6.11580117584e-05
6.11553839062e-05
6.11525240907e-05
6.11496198495e-05
6.11465842973e-05
6.11434593228e-05
6.11402641817e-05
6.11370720155e-05
6.11340189656e-05
6.11311621507e-05
6.11284746536e-05
6.11259038452e-05
6.11233011384e-05
6.11205477259e-05
6.11175367171e-05
6.11144332449e-05
6.11115276214e-05
6.11084554411e-05
6.11055109747e-05
6.1102684683e-05
6.10999239025e-05
6.10972249478e-05
6.10945173632e-05
6.10918039107e-05
6.10891124281e-05
6.1086349639e-05
6.10835790398e-05
6.10806961356e-05
6.10777867674e-05
6.10748191491e-05
6.10717755195e-05
6.10685944929e-05
6.10653888008e-05
6.10621457985e-05
6.10589358867e-05
6.10557951814e-05
6.1052842561e-05
6.10500830083e-05
6.10474871886e-05
6.10449752511e-05
6.10422880459e-05
6.10394938642e-05
6.10365080907e-05
6.10335668276e-05
6.10307102733e-05
6.10282930164e-05
6.10259288851e-05
6.10236603331e-05
6.10213910112e-05
6.10192060173e-05
6.10168733164e-05
6.1014234602e-05
6.10113575785e-05
6.10082663497e-05
6.10050299644e-05
6.10016894748e-05
6.09982438704e-05
6.09947200408e-05
6.09911386446e-05
6.0987561096e-05
6.09840859906e-05
6.09807438901e-05
6.09775164239e-05
6.09747391965e-05
6.09722976465e-05
6.09699246679e-05
6.0967583606e-05
6.09652783578e-05
6.09630199677e-05
6.09607480131e-05
6.09584453995e-05
6.09560775182e-05
6.0953619173e-05
6.0951056433e-05
6.09483476566e-05
6.09454752481e-05
6.09424640472e-05
6.09393625514e-05
6.09362046413e-05
6.09330190004e-05
6.09298682857e-05
6.09267990115e-05
6.09238885315e-05
6.09212258097e-05
6.09183833246e-05
6.09155469778e-05
6.09128130964e-05
6.09101654085e-05
6.090764581e-05
6.09052390156e-05
6.09027283982e-05
6.09001053787e-05
6.0897320506e-05
6.08945329893e-05
6.08917724389e-05
6.08891381734e-05
6.08869985899e-05
6.08857511027e-05
6.0884485098e-05
6.08808805047e-05
6.08778191979e-05
6.08765635252e-05
6.08748681229e-05
6.0871814959e-05
6.08680789443e-05
6.0863851394e-05
6.08595632225e-05
6.08559032931e-05
6.08536766369e-05
6.08521830723e-05
6.08506203968e-05
6.08469480524e-05
6.08452828486e-05
6.08435388752e-05
6.08397577934e-05
6.08362911333e-05
6.08339594298e-05
6.08321472984e-05
6.08296654987e-05
6.08269626292e-05
6.08248839588e-05
6.08220312816e-05
6.08189805516e-05
6.08155619239e-05
6.08118863486e-05
6.08081780552e-05
6.08046565298e-05
6.08012655545e-05
6.07979897051e-05
6.07948785369e-05
6.07920773991e-05
6.07894290255e-05
6.07869579253e-05
6.07844765187e-05
6.07820585406e-05
6.07797786622e-05
6.07775447326e-05
6.07756992472e-05
6.07739023752e-05
6.0772062602e-05
6.07703699923e-05
6.07684229409e-05
6.07667790616e-05
6.07650363651e-05
6.07633481136e-05
6.07609417418e-05
6.07579400511e-05
6.07543885747e-05
6.0750362069e-05
6.0746359517e-05
6.07431680098e-05
6.0740485139e-05
6.07381365898e-05
6.07358744497e-05
6.07334146047e-05
6.07306289112e-05
6.07277378774e-05
6.07250539534e-05
6.07227162025e-05
6.07205641342e-05
6.07183120511e-05
6.07157145366e-05
6.07127193491e-05
6.07095536769e-05
6.07063084643e-05
6.07030216362e-05
6.06998203367e-05
6.06969004865e-05
6.06942428465e-05
6.06919811294e-05
6.068956154e-05
6.06872169816e-05
6.06851463366e-05
6.06832437995e-05
6.06812747181e-05
6.06790617989e-05
6.0676736664e-05
6.06742716173e-05
6.0671764824e-05
6.06692486298e-05
6.06666847018e-05
6.0664035933e-05
6.06614329718e-05
6.0658939843e-05
6.06565298083e-05
6.06539950848e-05
6.06515607859e-05
6.06491073415e-05
6.06465198317e-05
6.06440067287e-05
6.06416406537e-05
6.06393643723e-05
6.06372297539e-05
6.06351074756e-05
6.06329639338e-05
6.06307323901e-05
6.06284157404e-05
6.06259647982e-05
6.06234636633e-05
6.06208518686e-05
6.06183003709e-05
6.06157711452e-05
6.06132669418e-05
6.06112183898e-05
6.06088657068e-05
6.06065064764e-05
6.0604092438e-05
6.06016435199e-05
6.05991915817e-05
6.05967628516e-05
6.0594371631e-05
6.05920111656e-05
6.0589663878e-05
6.05872856e-05
6.0584862692e-05
6.05824039332e-05
6.05799161545e-05
6.05774178926e-05
6.05749177307e-05
6.05724074824e-05
6.05698646616e-05
6.05673169339e-05
6.05647758839e-05
6.05622544969e-05
6.05597616916e-05
6.05572958679e-05
6.05548592178e-05
6.05524576073e-05
6.05500849614e-05
6.05477108476e-05
6.05453232522e-05
6.05429425799e-05
6.05405857938e-05
6.05382387709e-05
6.05358954482e-05
6.05335518171e-05
6.05312024594e-05
6.05288527815e-05
6.05265236655e-05
6.05242325713e-05
6.05219751036e-05
6.05197740233e-05
6.05176207863e-05
6.05155189801e-05
6.05134707973e-05
6.05114586017e-05
6.05094146328e-05
6.05073857647e-05
6.0505345058e-05
6.05032670949e-05
6.05011714334e-05
6.0499015122e-05
6.04968213271e-05
6.0494664402e-05
6.04925594942e-05
6.04905361345e-05
6.04886012981e-05