/*--------------------------------*- C++ -*----------------------------------*\
  =========                 |
  \\      /  F ield         | OpenFOAM: The Open Source CFD Toolbox
   \\    /   O peration     | Website:  https://openfoam.org
    \\  /    A nd           | Version:  6
     \\/     M anipulation  |
\*---------------------------------------------------------------------------*/
FoamFile
{
    version     2.0;
    format      ascii;
    class       volScalarField;
    location    "0.0005";
    object      p;
}
// * * * * * * * * * * * * * * * * * * * * * * * * * * * * * * * * * * * * * //

dimensions      [1 -1 -2 0 0 0 0];

internalField   nonuniform List<scalar> 
32000
(
14924.6373456
14924.6219344
14924.6132909
14924.591
14924.572259
14924.5475546
14924.5272428
14924.5055359
14924.4898307
14924.4724059
14924.4537878
14924.4217887
14924.378013
14924.2981688
14924.1909484
14924.0297968
14923.8306771
14923.5706124
14923.2732321
14922.9121481
14922.5169145
14922.054208
14921.5600781
14920.999794
14920.4064607
14919.7458275
14919.049481
14918.2902935
14917.4995904
14916.6427376
14915.7513568
14914.8014646
14913.8177615
14912.7828712
14911.7111038
14910.5999859
14909.4548745
14908.2817923
14907.1266993
14906.0599121
14905.0738775
14904.1696595
14903.3404168
14902.5827259
14901.8926376
14901.2605318
14900.6751015
14900.1247689
14899.5954712
14899.0626103
14898.4971226
14897.8834653
14897.2107563
14896.4699304
14895.6563773
14894.7677713
14893.8004393
14892.7498556
14891.612534
14890.3852024
14889.0622673
14887.6349967
14886.1005481
14884.4796411
14882.7462962
14880.8784325
14878.9266178
14876.8331575
14874.6362579
14872.2725701
14869.8265785
14867.1701765
14864.4477962
14861.5172144
14858.477641
14855.2527798
14851.9375755
14848.4452714
14844.8347414
14841.0969086
14837.2720136
14833.3197906
14829.3088821
14825.2384405
14821.1068599
14816.9735197
14812.8327725
14808.7119277
14804.6495875
14800.6630746
14796.7264663
14792.8155605
14788.9457666
14785.1152829
14781.1811181
14777.0768536
14772.9942404
14768.4886122
14763.5246864
14758.5639798
14752.6008343
14745.959626
14739.1837374
14730.3052087
14720.6956238
14710.0070612
14695.1582311
14680.178526
14659.9616895
14634.5878217
14606.8610853
14566.5406403
14523.6954659
14465.3160459
14398.6665911
14318.1622598
14230.6645444
14160.276694
14108.521659
14070.8400385
14043.4848224
14023.5575559
14008.8945898
13997.9458058
13989.5917165
13983.0489291
13977.7608884
13973.3200243
13969.4379454
13965.918706
13962.6081182
13959.4249477
13956.300771
13953.1922022
13950.0832046
13946.9619135
13943.8157064
13940.6353866
13937.4151877
13934.1504804
13930.8327561
13927.4641548
13924.0318545
13920.5385386
13916.9747901
13913.3351694
13909.6106139
13905.8015571
13901.8871581
13897.8658541
13893.7311562
13889.4650298
13885.0798477
13880.5530945
13875.900721
13871.108601
13866.1832559
13861.1264738
13855.9307222
13850.6084914
13845.1359961
13839.5151529
13833.7301439
13827.768614
13821.632316
13815.3144866
13808.8215615
13802.1531734
13795.3256278
13788.3178767
13781.1527774
13773.7941551
13766.2366604
13758.6296374
13751.4320793
13744.6915067
13738.4059167
13732.5405837
13727.1048205
13722.070161
13717.3737788
13712.9846849
13708.8492565
13704.9063071
13701.132736
13697.4784665
13693.9284449
13690.5091522
13687.2064099
13684.009421
13680.9352404
13677.9885873
13675.1892879
13672.5636034
13670.1057515
13667.8269415
13665.6885749
13663.7207186
13661.8321129
13660.0328744
13658.3246543
13656.6520275
13655.043004
13653.5201145
13652.0663773
13650.694866
13649.4148333
13648.2018749
13647.0470058
13645.972607
13644.9895904
13644.0797688
13643.2273858
13642.4360066
13641.7283963
13641.1233858
13640.6255178
13640.2361635
13639.9383338
13639.72138
13639.5829542
13639.4846098
13639.4821971
13639.5556331
13639.6741129
13639.817474
13639.9707545
13640.1266634
13640.277275
13640.4187232
13640.5491546
13640.6666508
13640.7703311
13640.8691277
13640.969294
13641.0755959
13641.1945091
13641.3342879
13641.5044836
13641.7145409
13641.9721825
13642.2824871
13642.6478089
13643.0680525
13643.5409487
13644.0626362
13644.6286914
13645.2334531
13645.87786
13646.5599614
13647.2800699
13648.0388115
13648.8395607
13649.6888398
13650.5940424
13651.5622787
13652.5349326
13653.4516969
13654.3060485
13655.0927832
13655.8061361
13656.4488115
13657.0254473
13657.5421866
13658.007171
13658.4327901
13658.8283855
13659.206066
13659.5741722
13659.9399158
13660.3096898
13660.6844748
13661.064491
13661.4484199
13661.8304751
13662.210033
13662.5802743
13662.9390926
13663.28038
13663.6088181
13663.9214859
13664.2235303
13664.5198041
13664.8100177
13665.096721
13665.3808429
13665.6642751
13665.9487091
13666.2359887
13666.5286583
13666.830571
13667.1460002
13667.4793774
13667.8356474
13668.2211301
13668.6453689
13669.120972
13669.6589349
13670.2639491
13670.9417617
13671.7107964
13672.5892375
13673.5807607
13674.6925955
13675.9570596
13677.3880132
13679.0060322
13680.7989346
13682.539775
13684.207344
13685.8024601
13687.3244209
13688.7792511
13690.1724484
13691.5029089
13692.7653969
13693.9542329
13695.0649374
13696.0942001
13697.0402281
13697.902918
13698.6845131
13699.3899094
13700.0265361
13700.6035002
13701.130283
13701.6158114
13702.0677734
13702.4925339
13702.8950775
13703.279715
13703.6498458
13704.0083783
13704.3579039
13704.6996956
13705.0372074
13705.3735129
13705.7111563
13706.0562852
13706.4139581
13706.7901593
13707.1910258
13707.6242839
13708.1000284
13708.6278668
13709.2130613
13709.8594945
13710.5722165
13711.349384
13712.1872798
13713.083931
13714.0266769
13714.9862877
13715.9359456
13716.8789666
13717.8192341
13718.7596575
13719.7057464
13720.6663152
13721.6514678
13722.6749516
13723.7539348
13724.9068679
13726.1527741
13727.5119781
13729.0061503
13730.657319
13732.4879923
13734.5222433
13736.784999
13739.2921454
13741.8242063
13744.2254208
13746.4953768
13748.6347776
13750.6443363
13752.5253266
13754.2798497
13755.9109397
13757.4227454
13758.8205003
13760.1104819
13761.2999493
13762.3970161
13763.4104631
13764.3495461
13765.2236271
13766.0419067
13766.813209
13767.5457036
13768.2469084
13768.9236999
13769.5824548
13770.2289423
13770.8683045
13771.50456
13772.1404386
13772.778353
13773.4199714
13774.0664822
13774.7221715
13775.39412
13776.0903368
13776.8195276
13777.5922973
13778.4225324
13779.328244
13780.3318298
13781.4583721
13782.7326418
13784.1774439
13785.8081238
13787.4557055
13788.9966103
13790.4346222
13791.7764741
13793.0305432
13794.206279
13795.3136589
13796.3630406
13797.3647907
13798.3290568
13799.2651804
13800.1814803
13801.0850652
13801.9821053
13802.8785994
13803.7812914
13804.696155
13805.6290508
13806.5852691
13807.5695411
13808.5910256
13809.6664958
13810.8172068
13812.0633259
13813.4290124
13814.9495836
13816.6660995
13818.6208657
13820.8630388
13823.322202
13825.6556384
13827.8098537
13829.783065
13831.5790527
13833.2056217
13834.6739604
13835.9974922
13837.1914934
13838.2719598
13839.2551736
13840.1569523
13840.9920959
13841.7742316
13842.515197
13843.2251554
13843.9121168
13844.582619
13845.2412473
13845.8919295
13846.5410398
13847.1919858
13847.8499999
13848.5245261
13849.2307258
13849.9893802
13850.8255299
13851.7694709
13852.859374
13854.1393673
13855.6534797
13857.4461645
13859.5677568
13862.01915
13864.3907291
13866.5544487
13868.5189731
13870.2957327
13871.8992045
13873.3459841
13874.6539201
13875.8416775
13876.9276881
13877.9300234
13878.8654184
13879.7491397
13880.5945109
13881.4128055
13882.2130793
13883.0026912
13883.7867285
13884.569008
13885.3514349
13886.1349824
13886.9203285
13887.7120597
13888.5174643
13889.3472545
13890.2153053
13891.1397159
13892.1433592
13893.2532016
13894.4999308
13895.9176065
13897.542359
13899.4121531
13901.569288
13904.0611863
13906.9381439
13910.0379119
13912.9495991
13915.63949
13918.1127993
13920.3780726
13922.4462365
13924.3305936
13926.0461161
13927.6088251
13929.0356361
13930.3434068
13931.549054
13932.6685944
13933.7173304
13934.7089992
13935.6563135
13936.5699837
13937.4596177
13938.3329415
13939.1963703
13940.054659
13940.9111594
13941.7682434
13942.6275298
13943.4921682
13944.3685112
13945.2666304
13946.1998229
13947.1844117
13948.2402767
13949.3906132
13950.6614244
13952.0808699
13953.6789407
13955.4859478
13957.5311484
13959.8401554
13962.4158972
13964.972351
13967.38387
13969.6620288
13971.8189487
13973.8671997
13975.8194728
13977.6883368
13979.485938
13981.2238628
13982.9129285
13984.5630755
13986.1833163
13987.7815444
13989.3646666
13990.9382345
13992.5067305
13994.0732211
13995.6400289
13997.2087379
13998.7815239
14000.3629906
14001.9603413
14003.5835646
14005.2452423
14006.9607505
14008.7483851
14010.6294367
14012.6279231
14014.7522173
14016.8510345
14018.8684811
14020.8032766
14022.6572623
14024.4346066
14026.1414035
14027.7849328
14029.3735423
14030.9156932
14032.4200498
14033.8945735
14035.3467735
14036.783168
14038.2091712
14039.6291363
14041.045942
14042.4614705
14043.8782185
14045.3003213
14046.7354436
14048.1949538
14049.6940274
14051.2528241
14052.8982258
14054.6637438
14056.5888158
14058.7208752
14061.1186657
14063.7495518
14066.2642417
14068.5874234
14070.7104294
14072.6312474
14074.3534584
14075.8852583
14077.2384715
14078.4276425
14079.4690882
14080.3803667
14081.1792385
14081.8833237
14082.5095635
14083.0737632
14083.5903238
14084.0719759
14084.5297454
14084.972603
14085.4075731
14085.8395373
14086.2715269
14086.7053125
14087.1452897
14087.6002357
14088.0835537
14088.6132359
14089.2122094
14089.9086359
14090.73609
14091.7337712
14092.9465256
14094.4246837
14096.2238216
14098.4046261
14101.0328821
14104.1798817
14107.9180592
14111.8623581
14115.4837962
14118.7650864
14121.7121902
14124.3360874
14126.6519621
14128.6783974
14130.4365904
14131.949639
14133.2417644
14134.3377389
14135.2621929
14136.039119
14136.6915237
14137.2408595
14137.706923
14138.1076259
14138.4585717
14138.7733722
14139.0630446
14139.3368313
14139.6015308
14139.8622788
14140.1220493
14140.3833356
14140.6519162
14140.9371285
14141.2519968
14141.6141815
14142.0461876
14142.5742452
14143.2273356
14144.0369611
14145.0369068
14146.2621309
14147.7473541
14149.5264895
14151.633065
14154.1008321
14156.9646782
14160.2634398
14164.044213
14168.0433924
14171.7952823
14175.2705672
14178.4664087
14181.382469
14184.0212352
14186.3884923
14188.4933249
14190.3480231
14191.9677025
14193.3698447
14194.5737561
14195.5999433
14196.4695561
14197.2037248
14197.8231891
14198.3476198
14198.795469
14199.1834458
14199.5264524
14199.8372323
14200.1264364
14200.4024762
14200.6717321
14200.938475
14201.2051409
14201.4755581
14201.7575722
14202.0630859
14202.4089824
14202.8172202
14203.3141838
14203.9303593
14204.7000636
14205.6602085
14206.8487125
14208.3030053
14210.0579321
14212.1417679
14214.5395519
14216.8872001
14219.0683653
14221.1025579
14223.0102973
14224.812156
14226.5281953
14228.1772965
14229.7767282
14231.3416002
14232.884655
14234.4158627
14235.9423283
14237.4681833
14238.9962591
14240.5347289
14242.0988891
14243.7124293
14245.4090938
14247.2349423
14249.216895
14251.1495125
14252.9476809
14254.591111
14256.0664101
14257.366756
14258.491278
14259.4443029
14260.2344825
14260.8739299
14261.3772287
14261.7606581
14262.0412248
14262.2361275
14262.3620089
14262.4347182
14262.4688911
14262.4780985
14262.4689692
14262.4457821
14262.3893375
14262.2826132
14262.1547275
14262.0567822
14261.9889362
14261.9464435
14261.92261
14261.911748
14261.9173287
14261.9477698
14262.0251622
14262.1734409
14262.4198298
14262.7944657
14263.3289713
14264.0549013
14265.0021889
14266.1978069
14267.6645956
14269.4201252
14271.4756802
14273.8357587
14276.4989717
14279.4623507
14282.5843584
14285.5838088
14288.4467074
14291.1762628
14293.7702184
14296.2229428
14298.5273476
14300.6764503
14302.664582
14304.4882347
14306.1465895
14307.6417315
14308.9786476
14310.1649803
14311.2107276
14312.1277237
14312.9292152
14313.6292195
14314.2421497
14314.7821802
14315.2630045
14315.6972753
14316.0964949
14316.4706645
14316.8282059
14317.175872
14317.5186475
14317.8598487
14318.20118
14318.5449555
14318.8968412
14319.2659607
14319.6649386
14320.1097689
14320.6193907
14321.2013343
14321.7632087
14322.2722277
14322.7266313
14323.1276145
14323.4787128
14323.7850956
14324.0530148
14324.2891866
14324.5003973
14324.6930188
14324.8728032
14325.0445491
14325.2120545
14325.3779021
14325.5435523
14325.7104209
14325.8822521
14326.0654971
14326.2695302
14326.5068145
14326.792974
14327.146742
14327.5897498
14328.1461657
14328.842153
14329.7052304
14330.7635617
14332.0452992
14333.5781299
14335.3891948
14337.5055787
14339.9556496
14342.7715058
14345.9929624
14349.6681391
14353.4899153
14357.0559826
14360.3444191
14363.3479365
14366.0631663
14368.4911302
14370.6370974
14372.5105132
14374.1244499
14375.4950978
14376.6411317
14377.5828527
14378.3417799
14378.9396286
14379.3981398
14379.7382071
14379.9799591
14380.1421046
14380.2421123
14380.2959704
14380.3181794
14380.3216238
14380.3134071
14380.2801224
14380.2013165
14380.0617054
14379.9118645
14379.7970747
14379.7148785
14379.6608355
14379.6293539
14379.6142561
14379.608322
14379.6124144
14379.6350715
14379.6917505
14379.7975665
14379.9680308
14380.2188576
14380.5660166
14381.0258952
14381.6148541
14382.3483548
14383.2406801
14384.3057843
14385.5585008
14387.0148793
14388.6919836
14390.608443
14392.7860122
14395.251201
14398.0375164
14401.1901848
14404.7611189
14408.3834246
14411.7373081
14414.7962172
14417.5426981
14419.967677
14422.0704973
14423.8584263
14425.3457226
14426.5525144
14427.5036162
14428.2272168
14428.7537657
14429.1147798
14429.3420233
14429.4667426
14429.5192425
14429.5274496
14429.5081482
14429.4284083
14429.2351975
14428.876992
14428.3141477
14427.7051022
14427.213766
14426.8372237
14426.5648234
14426.3820289
14426.2715736
14426.2144454
14426.1903203
14426.190747
14426.2357994
14426.3675422
14426.6335124
14427.0858437
14427.77906
14428.7704621
14430.1205268
14431.8922819
14434.1504341
14436.9600336
14440.3363238
14443.6361472
14446.5977461
14449.2260188
14451.5318146
14453.5309398
14455.2431077
14456.6907998
14457.898168
14458.8900997
14459.6914463
14460.3265596
14460.8188864
14461.1908432
14461.4634922
14461.6565213
14461.7877859
14461.8732617
14461.9267234
14461.959399
14461.9803775
14461.9957521
14462.0096354
14462.0240482
14462.0438805
14462.078636
14462.1422169
14462.2524538
14462.4303093
14462.6991849
14463.0846802
14463.6150484
14464.3228751
14465.2462268
14466.4303529
14467.9260824
14469.7867606
14472.0631566
14474.7988016
14478.0136338
14481.2659105
14484.2564165
14486.989973
14489.4708384
14491.7043907
14493.6974157
14495.4596925
14497.0033608
14498.3434452
14499.4970961
14500.4833608
14501.3225084
14502.0353881
14502.6428464
14503.1651152
14503.6213047
14504.0287612
14504.4028485
14504.7561271
14505.0986803
14505.4370701
14505.7753716
14506.1173419
14506.4730662
14506.859477
14507.3009087
14507.829221
14508.4841682
14509.3136403
14510.374002
14511.7306268
14513.3796461
14514.9257386
14516.2612518
14517.3847144
14518.3032787
14519.0297405
14519.5807711
14519.9758119
14520.2372122
14520.3900366
14520.4623099
14520.4842508
14520.4773647
14520.4027724
14520.203181
14519.8290741
14519.2380917
14518.3886813
14517.3870948
14516.518917
14515.8080621
14515.2457843
14514.8187129
14514.5118519
14514.3097928
14514.195802
14514.1502311
14514.1584723
14514.206944
14514.3207063
14514.5334045
14514.8764687
14515.3840116
14516.1031517
14517.0937834
14518.4162779
14520.1127726
14522.1947264
14524.6510467
14527.4755788
14530.6909129
14534.2644828
14537.7323956
14540.9782588
14543.9996291
14546.7889864
14549.3371488
14551.6369963
14553.685834
14555.4865009
14557.0474176
14558.3819155
14559.5073199
14560.4437742
14561.2129701
14561.8368093
14562.3364164
14562.7327924
14563.0488895
14563.3097485
14563.5301529
14563.6984889
14563.830363
14563.9370282
14564.0316612
14564.1189533
14564.2009448
14564.284726
14564.3653974
14564.460865
14564.5963382
14564.7713836
14565.0452284
14565.4512586
14566.031362
14566.8221875
14567.8527947
14568.8776078
14569.7424854
14570.4478882
14571.0005693
14571.4123457
14571.6986453
14571.8774156
14571.970474
14572.0032426
14571.9916852
14571.9456322
14571.8764492
14571.7401444
14571.4856962
14571.0872116
14570.5580914
14570.0813915
14569.7074618
14569.4306757
14569.2433065
14569.1329092
14569.0825362
14569.0748434
14569.1052015
14569.1613823
14569.2777859
14569.4989033
14569.8635283
14570.3979281
14571.1336173
14572.1262362
14573.4438919
14575.1345698
14577.2152618
14579.6914917
14582.5836469
14585.9387454
14589.3784081
14592.5290904
14595.3721828
14597.897291
14600.0984292
14601.9746177
14603.5308131
14604.7790565
14605.7398796
14606.4431808
14606.9267854
14607.2322692
14607.3989348
14607.4624088
14607.4259977
14607.3054589
14607.1092194
14606.7867956
14606.2597364
14605.4204736
14604.1849741
14602.9012442
14601.8360855
14600.9779506
14600.3114969
14599.8175064
14599.4716782
14599.2435136
14599.096217
14599.0157836
14598.9977146
14599.0378443
14599.2157949
14599.6125525
14600.2904845
14601.3201454
14602.7781638
14604.7370812
14607.274878
14610.3306078
14613.2058482
14615.7405265
14617.9423024
14619.8242973
14621.404749
14622.7065933
14623.7563263
14624.5832016
14625.2174823
14625.6894136
14626.0276225
14626.2583788
14626.4054338
14626.4899984
14626.5311509
14626.5454721
14626.5447718
14626.5374099
14626.5306898
14626.5308269
14626.5441214
14626.5929655
14626.7010709
14626.8917937
14627.2008174
14627.6782202
14628.3839182
14629.3744563
14630.4119985
14631.2775641
14631.9684368
14632.4951313
14632.8753692
14633.1313403
14633.2876515
14633.3702571
14633.4069807
14633.4072199
14633.3476481
14633.1844537
14632.8755591
14632.450927
14632.1020045
14631.8551827
14631.700472
14631.6212913
14631.5975702
14631.6269935
14631.691582
14631.8199919
14632.0656209
14632.4979246
14633.1847511
14634.1894366
14635.5919646
14637.4978305
14640.0055577
14643.145551
14646.2346694
14648.9355469
14651.2437287
14653.1651423
14654.7160447
14655.9216659
14656.8154194
14657.4382874
14657.8367092
14658.0594401
14658.1537922
14658.157082
14658.0851086
14657.931307
14657.6133607
14657.0326992
14656.0835453
14654.7062111
14653.352367
14652.2466625
14651.3758258
14650.7197747
14650.252372
14649.943254
14649.7594463
14649.6661847
14649.6274561
14649.6360716
14649.7268587
14649.9753858
14650.4406506
14651.1808732
14652.24344
14653.6556952
14655.4272008
14657.5454011
14659.9703303
14662.6426259
14665.5054162
14668.5238262
14671.5393812
14674.4531715
14677.2303537
14679.8271917
14682.2010938
14684.3180378
14686.1560457
14687.7064414
14688.9723902
14689.968136
14690.7165848
14691.2485145
14691.6003392
14691.8117343
14691.922639
14691.9745728
14691.9698499
14691.8777475
14691.6168384
14691.0963708
14690.2214048
14688.9078698
14687.0804455
14684.6586147
14681.9282305
14679.50051
14677.4145279
14675.6604132
14674.2215125
14673.0751305
14672.194236
14671.5482693
14671.1037584
14670.8243953
14670.6714822
14670.6055149
14670.5847632
14670.6200631
14670.7719884
14671.1246635
14671.754555
14672.7271717
14674.1030288
14675.947203
14678.3210738
14681.1564228
14683.8518478
14686.2834106
14688.4659198
14690.4086889
14692.1191429
14693.605945
14694.8804606
14695.9573629
14696.8548431
14697.5938435
14698.1972489
14698.6885918
14699.0910719
14699.4263112
14699.7137672
14699.9701601
14700.2089664
14700.4402408
14700.6703224
14700.9033828
14701.1452314
14701.408785
14701.7123463
14702.0765414
14702.522955
14703.0728016
14703.7391781
14704.4385728
14705.0819907
14705.6778519
14706.2369913
14706.7693611
14707.283122
14707.7842378
14708.2773139
14708.7688928
14709.26358
14709.7716499
14710.3116902
14710.9078527
14711.5877138
14712.3849368
14713.3397336
14714.4945334
14715.8941249
14717.5890139
14719.6365834
14722.1027465
14724.70106
14727.0461408
14729.1031381
14730.8569358
14732.3041596
14733.4530186
14734.3228047
14734.9435614
14735.3554579
14735.6064798
14735.7487059
14735.8113448
14735.7792807
14735.6056873
14735.1598086
14734.3157717
14732.9753618
14731.1343717
14729.4075332
14727.9961344
14726.8896679
14726.0596953
14725.467849
14725.0708302
14724.8245792
14724.6879141
14724.6154087
14724.6248568
14724.7280832
14724.9958865
14725.5080575
14726.3479749
14727.5652742
14729.1540856
14731.0660257
14733.2402837
14735.6155371
14738.0872057
14740.5336179
14742.9798932
14745.477398
14748.1408416
14750.8879491
14753.4612045
14755.7906759
14757.8370911
14759.5828853
14761.0287256
14762.1893889
14763.0887095
14763.7557394
14764.2221056
14764.5215027
14764.689705
14764.7646584
14764.786285
14764.769153
14764.6657338
14764.5102145
14764.416016
14764.3802172
14764.391186
14764.4462372
14764.5937445
14764.8648716
14765.2876287
14765.9004749
14766.6529567
14767.3105436
14767.8415199
14768.252099
14768.5546008
14768.7629252
14768.9035815
14768.9389932
14768.9001325
14768.7705343
14768.515022
14768.0832023
14767.4005197
14766.3933653
14765.0357555
14763.3687024
14761.473658
14759.6209204
14757.9132236
14756.3714027
14755.020726
14753.8833094
14752.9741272
14752.2978704
14751.8451485
14751.5891788
14751.4844231
14751.4824593
14751.5759953
14751.7457093
14751.9578941
14752.2794561
14752.8477198
14753.7200454
14754.8883893
14756.3549767
14758.0914058
14760.0137165
14762.0458582
14764.0286326
14765.9255271
14767.729118
14769.4233605
14770.9903599
14772.4144655
14773.6834679
14774.7897167
14775.7301032
14776.5064889
14777.1265601
14777.6038251
14777.9583442
14778.2148859
14778.4005458
14778.5421219
14778.6612956
14778.7746272
14778.8947976
14779.0315089
14779.2063558
14779.452535
14779.8078368
14780.3027761
14780.9531415
14781.7654195
14782.7471589
14783.8928537
14785.0062517
14786.0156097
14786.9129912
14787.6928185
14788.3531613
14788.8991179
14789.3428441
14789.7021282
14789.9983265
14790.2516048
14790.4775175
14790.6902658
14790.9067418
14791.1481202
14791.4526265
14791.8713212
14792.4576234
14793.2554266
14794.2922763
14795.5806548
14797.1172697
14798.6072397
14799.8997788
14800.9584942
14801.7538652
14802.279782
14802.5571896
14802.6269068
14802.4583013
14802.1356545
14801.6100802
14800.7852738
14799.5900881
14798.0295552
14796.1979124
14794.2064558
14792.0728438
14789.7678469
14787.5472193
14785.5086092
14783.6899144
14782.1351953
14780.8861314
14779.9697478
14779.3667389
14779.0030318
14778.9563064
14779.1719319
14779.747259
14780.6460139
14781.7686743
14783.0465233
14784.4607301
14785.9947062
14787.6227393
14789.3153273
14791.0681475
14792.9283669
14794.7876034
14796.3973889
14797.6899473
14798.625911
14799.1985294
14799.4183766
14799.1292689
14798.3484159
14797.0730207
14795.3589339
14793.2422073
14790.8043275
14788.1725204
14785.1580603
14781.8861004
14778.866341
14776.1096702
14773.678812
14771.6548207
14770.1149131
14769.0953398
14768.5754745
14768.4703796
14768.8527812
14769.8132784
14771.1583634
14772.8192221
14774.7531971
14776.9105578
14779.2414649
14781.7171656
14784.3446043
14787.167461
14790.2096109
14793.2920453
14796.3364744
14799.3133092
14802.1993911
14804.9654113
14807.5911193
14809.9925222
14811.9182538
14813.4610268
14814.6719608
14815.6100545
14816.339733
14816.9232925
14817.4260044
14817.910399
14818.4599369
14819.1071174
14819.8975451
14820.8638822
14822.028609
14823.4049286
14824.9964026
14826.795529
14828.7817619
14830.9220333
14833.1765228
14835.5080319
14837.8889417
14840.2611415
14842.5375891
14844.6921792
14846.6938314
14848.5131517
14850.1286497
14851.5296269
14852.7161258
14853.6982261
14854.4940407
14855.1278044
14855.6319556
14856.0530775
14856.4514272
14856.8765609
14857.362839
14857.9591809
14858.7098254
14859.6524708
14860.8183048
14862.2304651
14863.902675
14865.8385054
14868.0313814
14870.4652486
14873.1157228
14875.9516738
14878.9372555
14882.0345528
14885.2070539
14888.4228747
14891.6569651
14894.8622623
14898.0136059
14901.0982727
14904.1042657
14907.0222425
14909.8459676
14912.5714846
14915.196404
14917.7191236
14920.1381312
14922.4515331
14924.6567484
14926.7504765
14928.7288564
14930.587883
14932.3239411
14933.9344604
14935.4186916
14936.7786301
14938.0200216
14939.1532221
14940.1936047
14941.1616657
14942.0830897
14942.9888717
14943.9240614
14944.919455
14946.0127991
14947.2413691
14948.641816
14950.2475076
14952.0861119
14954.1773239
14956.5304791
14959.1424618
14961.9965125
14965.0630608
14968.3029945
14971.6718444
14975.1211703
14978.6089792
14982.0949703
14985.5053574
14988.7882676
14991.894841
14994.7871935
14997.4377147
14999.8291288
15001.9536871
15003.8129442
15005.417647
15006.7872022
15007.9487919
15008.9361333
15009.7879351
15010.5462475
15011.2556966
15011.9657244
15012.7235244
15013.5595447
15014.5042524
15015.5827109
15016.8132216
15018.2068897
15019.7671826
15021.4902085
15023.3654274
15025.3767474
15027.5039307
15029.72419
15032.0138432
15034.3498721
15036.7113918
15039.0816087
15041.4455776
15043.7918443
15046.1190898
15048.4296796
15050.7303931
15053.033409
15055.3529117
15057.7017426
15060.0940004
15062.5434387
15065.0622877
15067.6604237
15070.3445775
15073.1177542
15075.9788556
15078.9225228
15081.9392232
15085.0155738
15088.1349549
15091.2781333
15094.426957
15097.555399
15100.6424803
15103.6715808
15106.6287951
15109.5036325
15112.2898907
15114.9856807
15117.593158
15120.1178294
15122.5674956
15124.9509343
15127.2764469
15129.550421
15131.7760817
15133.952587
15136.0746098
15138.1324986
15140.1130525
15142.0008864
15143.7802834
15145.4373791
15146.9624872
15148.3522972
15149.6117532
15150.7553647
15151.8077759
15152.803404
15153.7868339
15154.8209717
15155.9478783
15157.2174472
15158.6754343
15160.3610833
15162.3035208
15164.5189346
15167.0090809
15169.7609039
15172.7474355
15175.9298623
15179.2605677
15182.6871241
15186.1595162
15189.6778126
15193.2054401
15196.7014314
15200.1164826
15203.3828457
15206.4828881
15209.4209474
15212.2214471
15214.9238307
15217.5767377
15220.2388374
15222.9634302
15225.7805606
15228.7119206
15231.7645159
15234.9281765
15238.1760327
15241.4669369
15244.7556222
15247.9646823
15251.0373225
15253.9167526
15256.5560191
15258.9206203
15260.9925463
15262.772388
15264.2799592
15265.553571
15266.6479941
15267.6309699
15268.5791854
15269.5976025
15270.7470069
15272.0932091
15273.6888934
15275.5730729
15277.7666945
15280.2709036
15283.0672776
15286.119542
15289.3768651
15292.7781201
15296.2572652
15299.7877266
15303.3961492
15307.1154852
15310.9849445
15315.0501291
15319.3395698
15323.5931501
15327.692042
15331.6228342
15335.3751295
15338.9524181
15342.1749409
15344.8076827
15346.8304753
15348.2901431
15349.2839336
15349.9410777
15350.4051811
15350.8270095
15351.3871491
15352.1745456
15353.2805611
15354.7673282
15356.6684211
15358.9860425
15361.6911822
15364.7272179
15368.0155801
15371.4625929
15374.9884498
15378.5522123
15382.0647791
15385.3881651
15388.4379752
15391.1649422
15393.5572522
15395.632658
15397.4356486
15399.031868
15400.5014422
15401.9324157
15403.4404641
15405.0873513
15406.9362797
15409.0321717
15411.4022985
15414.053064
15416.9699214
15420.1194989
15423.4530981
15426.9117097
15430.4332678
15434.0101923
15437.6703101
15441.4416094
15445.211889
15448.9024984
15452.504269
15455.9647028
15459.1053215
15461.8792689
15464.2762797
15466.3236295
15468.0712693
15469.5842843
15470.9370829
15472.2088981
15473.4868133
15474.856062
15476.366742
15478.0674363
15479.9953815
15482.1737407
15484.6114029
15487.3028508
15490.2294608
15493.3616423
15496.661628
15500.0866243
15503.5922859
15507.1369544
15510.7144925
15514.3382912
15518.0244827
15521.7900822
15525.6540108
15529.5987072
15533.5018295
15537.3414997
15541.1176694
15544.8325009
15548.4897723
15552.0945709
15555.6516694
15559.1048367
15562.4524018
15565.7139317
15568.919007
15572.0942556
15575.2586082
15578.4202033
15581.5756686
15584.7114067
15587.8061539
15590.8343618
15593.7698847
15596.589537
15599.2761877
15601.8211659
15604.2258163
15606.5021117
15608.6722678
15610.7675232
15612.825876
15614.8982873
15617.0297036
15619.2554949
15621.6084448
15624.1153724
15626.7938204
15629.6511708
15632.6841649
15635.8794411
15639.2149262
15642.661905
15646.1875362
15649.7574234
15653.3515364
15656.9791233
15660.6522413
15664.3850596
15668.1934466
15672.0951393
15676.1104717
15680.2630403
15684.5803512
15689.0950918
15693.7984607
15698.4380691
15702.9446162
15707.3127947
15711.5397458
15715.6247748
15719.5690472
15723.3763144
15727.0549681
15730.5531227
15733.6924449
15736.4676427
15738.9119545
15741.0913377
15743.083951
15744.9696881
15746.8247139
15748.7387486
15750.7528439
15752.9076261
15755.2305925
15757.7391893
15760.4399508
15763.3292005
15766.3945553
15769.6166368
15772.971075
15776.4306151
15779.9671288
15783.5534569
15787.1651026
15790.7917879
15794.4376447
15798.1070642
15801.8041915
15805.532721
15809.2956944
15813.0955106
15816.9339338
15820.8120366
15824.7301942
15828.6881002
15832.6848202
15836.7188756
15840.7883361
15844.890872
15849.0238152
15853.1842625
15857.3692628
15861.5760504
15865.8023303
15870.0465016
15874.3079464
15878.5873397
15882.8870385
15887.211442
15891.5673298
15895.9640605
15900.4137995
15904.9316704
15909.5360928
15914.2487673
15919.0945679
15924.1019519
15929.30263
15934.7316911
15940.4273957
15946.4313809
15952.7886001
15959.5473559
15966.7596709
15974.481162
15982.7709824
15991.69149
16001.306145
16011.6455039
16022.0081758
16031.9764503
16041.5671642
16050.8005871
16059.6980236
16068.2811468
16076.5712038
16084.5883348
16092.351346
16099.8770776
16107.1806027
16114.2746733
16121.170346
16127.8764947
16134.4003902
16140.7477184
16146.92286
16152.9291263
16158.7691763
16164.4448843
16169.958135
16175.3105536
16180.503778
16185.5402108
16190.4217705
16195.1523502
16199.7344849
16204.1738015
16208.4740663
16212.6421018
16216.6836107
16220.6060016
16224.4167322
16228.1152477
16231.554708
16234.7100548
16237.5987053
16240.2656967
16242.7611667
16245.1342051
16247.428456
16249.6801323
16251.9170879
16254.1663235
16256.4387823
16258.7406574
16261.0739021
16263.4381855
16265.8312468
16268.2499388
16270.6909458
16273.1516253
16275.6302824
16278.1265343
16280.6413121
16283.1766771
16285.7354977
16288.3208529
16290.9356562
16293.5817397