/*--------------------------------*- C++ -*----------------------------------*\
  =========                 |
  \\      /  F ield         | OpenFOAM: The Open Source CFD Toolbox
   \\    /   O peration     | Website:  https://openfoam.org
    \\  /    A nd           | Version:  6
     \\/     M anipulation  |
\*---------------------------------------------------------------------------*/
FoamFile
{
    version     2.0;
    format      ascii;
    class       volScalarField;
    location    "0.0005";
    object      Qdot;
}
// * * * * * * * * * * * * * * * * * * * * * * * * * * * * * * * * * * * * * //

dimensions      [1 -1 -3 0 0 0 0];

internalField   nonuniform List<scalar> 
32000
(
69888.6872224
69887.4012916
69887.4020247
69887.263577
69887.0582843
69886.7896909
69886.5314589
69886.2457402
69885.9661597
69885.7055104
69885.3708048
69884.9676889
69884.5467851
69883.7282663
69882.8237177
69881.445135
69880.0751232
69878.1162347
69875.9646383
69873.404551
69870.6371444
69867.2518784
69863.9124796
69860.0704395
69855.977418
69851.3790738
69846.5727675
69841.2914335
69835.8930792
69829.9464801
69823.9741994
69817.5266398
69810.7876865
69803.7203048
69796.5001089
69789.0214846
69781.3698115
69773.2245222
69765.3284026
69758.1874152
69751.4684561
69745.1775855
69739.3471678
69733.7472485
69728.7707673
69724.0153654
69719.6944931
69715.6777656
69711.5221089
69707.5628701
69703.4484707
69698.8899588
69693.9586284
69688.5650607
69682.8312491
69676.5345562
69669.3148442
69661.8430709
69653.7864342
69645.1900778
69636.3039552
69626.5338182
69615.6735872
69604.7708902
69593.2349806
69580.616912
69567.6013475
69552.8737219
69538.1313331
69522.1306509
69505.8151964
69488.0416653
69469.998507
69450.928495
69430.5890333
69409.0989187
69387.1762232
69363.5296608
69339.6318581
69314.9284535
69289.819775
69263.5971367
69237.4081344
69210.7618568
69183.1409622
69156.0951285
69128.617429
69101.6373471
69075.00889
69048.7711702
69022.0124289
68995.2109427
68969.2706042
68943.6734564
68917.7281556
68890.8228649
68864.0352188
68834.3700231
68801.5047606
68767.9176381
68728.7801572
68685.5088164
68641.4197217
68583.6839761
68521.2931694
68451.4602312
68353.9665887
68256.3677744
68125.7280208
67961.6208033
67782.1498895
67520.5613907
67241.808726
66862.9019348
66429.1719042
65904.5405428
65333.9306818
64874.7529598
64536.6776548
64290.3872901
64111.1285754
63980.3607928
63883.7575518
63811.5302047
63755.2169818
63710.92659
63674.8764793
63644.1785872
63617.3945334
63593.4194497
63571.0191471
63549.3006954
63527.9349563
63506.6681962
63484.7693872
63462.1971788
63440.6436253
63419.1559559
63396.6392771
63373.7509871
63349.5344409
63325.3016657
63301.0058833
63277.0589104
63252.9015141
63228.025811
63202.641028
63176.1002305
63149.1354596
63121.0342704
63092.73839
63063.9267962
63033.6755498
63002.9555703
62971.3643816
62939.1562508
62905.4075598
62869.4959606
62833.0236371
62795.9804066
62758.3570971
62720.1077647
62680.7385128
62640.2921177
62598.7874481
62556.0945409
62512.0166788
62466.4226935
62420.008511
62372.7780725
62324.5404496
62274.4866102
62222.7657361
62170.4847477
62120.9872057
62074.5867793
62031.3123909
61991.0736011
61953.6766535
61918.6836546
61886.0272479
61855.8302688
61827.6783367
61800.8499292
61773.9055425
61748.2052226
61723.6482135
61700.3602409
61677.8611444
61655.188132
61632.6039502
61611.8154162
61592.6273782
61574.115947
61555.7714603
61539.1357429
61524.105372
61510.5765164
61496.7777129
61483.0124131
61469.4739763
61456.2494486
61443.7236212
61432.2325595
61421.3615496
61411.0123464
61401.0449356
61391.2561899
61381.7120532
61372.8427271
61365.037309
61357.8656888
61351.3447468
61345.2936415
61339.3094695
61333.5769466
61328.2822254
61323.5394803
61319.4471163
61315.801697
61312.9458517
61310.8547907
61308.5313908
61307.7851981
61307.3977944
61307.0025011
61306.4880022
61305.6517211
61304.7949139
61303.9583988
61303.3833186
61303.0060512
61302.9998788
61302.8262664
61301.1663163
61299.8785399
61299.4276831
61299.9315234
61299.65987
61298.6476307
61298.0989782
61298.2130941
61298.8168491
61299.8037846
61301.0701082
61302.5934103
61304.5240465
61306.8147792
61309.3356719
61312.1102717
61314.9496924
61317.9242672
61320.8149364
61324.0312379
61328.0412478
61333.0485536
61338.523074
61343.6675285
61348.3149794
61352.4776898
61354.4607767
61357.1858332
61359.5353079
61361.8056091
61363.3616526
61363.2934833
61363.2557831
61363.3843765
61363.7347357
61364.2234958
61364.7443024
61365.2981924
61366.0594195
61367.1271561
61368.1930433
61369.6010615
61370.8093515
61371.8004192
61372.6101163
61372.8102658
61372.9030647
61372.6361816
61372.3391108
61371.8675032
61371.5163579
61371.3259804
61371.2765923
61371.2922442
61371.2179573
61371.0847135
61370.8328535
61370.6227542
61370.3930705
61370.5974861
61371.3967723
61372.3824968
61373.7837851
61375.4185658
61377.0653786
61378.9198058
61381.4541722
61385.4303556
61390.596135
61396.7726863
61403.9976878
61412.2139551
61421.3345387
61431.2347167
61440.3846288
61448.7924392
61456.7775434
61464.5724434
61472.2579047
61479.7074053
61486.8600771
61493.3627664
61499.3505814
61504.7639521
61509.0429036
61513.0201888
61516.5384851
61519.6333934
61522.223513
61524.3160749
61525.7928571
61526.6794887
61526.984076
61526.9585335
61527.2063576
61527.7637682
61528.6074731
61529.7362543
61531.0671892
61532.1733742
61533.0118334
61533.4868054
61533.6465103
61533.4896169
61533.093161
61532.531246
61531.9289839
61531.3134532
61531.0827579
61531.6109105
61532.9661413
61535.0616598
61537.8668511
61541.1330125
61544.561483
61547.9452762
61551.4303827
61555.045316
61558.8853678
61562.7625578
61566.5615659
61570.1983152
61573.6462335
61577.0157086
61580.56378
61584.2480586
61588.4055907
61593.2992525
61598.9317614
61605.5264145
61613.4110658
61622.1034292
61631.7364392
61640.4332551
61651.1973808
61664.5280832
61680.1287584
61694.9295119
61707.854973
61720.0909726
61731.3253967
61741.7051793
61751.1756729
61759.8049759
61767.4482322
61774.3866581
61780.9820118
61787.5138091
61793.5907832
61798.7932259
61803.0958891
61806.6611065
61809.5812002
61812.3184879
61815.0663391
61817.6452053
61820.1355168
61822.4255414
61824.4570343
61826.2781581
61827.9913981
61829.7344071
61831.5403142
61833.3031172
61834.9965312
61836.7683819
61838.7283171
61840.7214958
61842.8779842
61845.0923716
61847.5427223
61850.0652438
61853.1565668
61856.9936016
61861.7820639
61867.5794763
61874.5434322
61882.5284384
61890.4356967
61897.390597
61903.6095552
61909.6456297
61915.5975997
61921.31274
61926.904828
61931.9995946
61936.1490318
61939.9278781
61943.3802646
61946.6248565
61949.7114373
61952.7353617
61955.7376151
61958.9623683
61961.7093312
61963.7725908
61966.9799519
61970.8012892
61974.9870291
61979.6620443
61984.9283751
61990.9287775
61997.7976179
62005.5603268
62014.4519051
62024.8654216
62036.9589415
62049.9119848
62061.5614014
62071.902563
62081.2115487
62090.0765507
62098.7645718
62107.0843155
62114.3938975
62121.0591633
62126.4560882
62130.6981007
62133.4810681
62135.4206806
62136.9028087
62138.5538259
62140.9684751
62143.6929947
62144.7941743
62143.6761304
62142.7530014
62144.143954
62146.3823314
62148.7114547
62150.6128636
62151.5651053
62154.8768429
62158.8106943
62162.8770755
62167.5735042
62173.0362606
62179.6836416
62188.0924178
62198.4612756
62210.5127808
62221.9116681
62232.1370555
62241.8071275
62250.9757779
62259.4040236
62266.8565378
62273.308315
62278.8616449
62283.4792229
62287.5317155
62290.9813876
62293.7006131
62295.8874921
62297.7514361
62299.827215
62301.9718121
62302.6531698
62305.101136
62307.0710451
62310.4630136
62312.8314369
62315.587995
62317.1292233
62319.8075068
62321.392944
62325.5042067
62328.7547112
62333.6884218
62339.1255275
62345.2018807
62352.9773681
62361.6888638
62371.9628289
62384.4001798
62399.2335142
62415.8996479
62431.634793
62446.3977792
62460.1242197
62472.0247708
62480.8996982
62491.0919392
62498.7249348
62505.4417376
62512.3331287
62518.5162778
62523.6104683
62527.7464058
62531.5451535
62535.0886715
62538.7298628
62542.857952
62547.451082
62549.9492979
62550.1102608
62550.1568807
62550.862292
62552.6949984
62556.1056495
62560.1712498
62564.0766651
62567.0862095
62570.7754741
62572.7844809
62576.2783714
62580.760421
62585.9967963
62591.7561722
62598.8722691
62606.9567184
62616.5231097
62628.1870173
62641.8534304
62656.8327896
62668.7038051
62680.5364203
62690.7901581
62700.3982128
62709.7077144
62718.1021317
62725.5515226
62732.819797
62740.0255234
62747.1880904
62754.5933108
62762.1467138
62769.993282
62777.7897734
62784.724908
62791.2497961
62798.9227007
62806.7177867
62813.188818
62819.230248
62824.2990564
62829.783977
62837.4060623
62846.3902449
62855.3140509
62865.4401446
62875.2534432
62886.3638695
62894.9292709
62903.4739879
62912.6234773
62921.4962975
62929.5732623
62936.9248194
62943.9918987
62951.4595734
62958.8412167
62965.4109589
62971.1203892
62976.1154246
62980.8030749
62986.0495375
62992.5484177
62999.7064402
63006.3141108
63012.1639305
63018.9578272
63023.8116967
63028.6145059
63033.8221501
63040.0708913
63047.345389
63055.2554423
63063.6190002
63072.5112976
63083.0454362
63096.3255119
63110.4027419
63124.1301578
63135.4826656
63144.4716127
63152.3636558
63159.693534
63165.7490971
63168.1610706
63169.7307994
63171.4215588
63172.8733638
63174.5757603
63176.1030909
63176.8778922
63177.9260401
63178.7932518
63178.7963885
63176.3618614
63174.4981899
63173.5886951
63172.7760127
63171.9540609
63170.7268368
63169.4648253
63168.3868543
63167.5984354
63167.5527686
63168.6805219
63170.9488344
63174.2883075
63178.9912515
63185.1911921
63192.9008587
63202.5649265
63215.2659622
63231.6031519
63251.8666306
63273.5578045
63293.0130877
63310.0860586
63324.9865348
63337.7145842
63348.4061977
63357.3053587
63365.0035631
63371.5411441
63376.8167453
63380.6532981
63383.0439183
63384.1909159
63384.1256128
63383.3782761
63382.1441273
63380.3486225
63378.5052262
63376.7851348
63375.0025361
63372.9062648
63370.6586882
63368.248006
63365.6691584
63362.7690127
63359.6365225
63356.4967868
63354.0588015
63352.5794912
63352.4328034
63353.4939649
63355.4474262
63357.7631211
63360.4213832
63364.3922221
63370.2450623
63378.6710936
63389.1672045
63401.4942489
63415.2872022
63431.7576285
63451.9210877
63474.9689635
63496.4462614
63516.5093643
63534.1210969
63548.5886536
63558.903921
63567.7478334
63576.4643835
63584.8994068
63592.0363985
63597.493472
63601.5517045
63604.2699487
63606.0087282
63607.2053301
63607.3242261
63606.5444762
63605.0009248
63603.0982057
63600.7507879
63598.265997
63595.8280833
63593.2909778
63591.0023696
63588.9378623
63586.883941
63584.7047011
63582.4608499
63580.0620763
63577.8104161
63575.8441829
63574.5181051
63574.0984648
63574.863076
63576.8763892
63580.35754
63585.5211303
63592.9886575
63602.5727985
63614.1634713
63625.248122
63634.8598099
63643.3913976
63651.1645518
63658.5532488
63665.5151615
63672.2141497
63678.455186
63684.3885427
63690.2221141
63696.0684477
63701.9855204
63707.9436066
63714.0556747
63720.0873098
63725.9327681
63732.0235275
63738.8095357
63745.9774311
63753.9469434
63761.1951631
63767.8930453
63773.7517904
63778.9051093
63783.1967091
63786.4664712
63788.5429972
63789.4204862
63789.0963183
63787.7365781
63785.4593827
63782.5313691
63779.1332108
63775.5055257
63771.917104
63768.2414907
63764.494101
63760.892377
63756.8710323
63752.5965297
63747.9704139
63743.1551753
63738.4936808
63733.8599903
63729.4838515
63725.2596569
63721.4376207
63717.4479949
63713.2609566
63709.0748945
63705.2703992
63702.2158379
63700.4207285
63699.9322363
63700.8465114
63703.0382877
63706.7526877
63712.0984054
63719.0172897
63727.6312738
63737.8451819
63749.5972698
63763.0936488
63777.5761534
63791.4411639
63804.9504132
63817.7826072
63829.94676
63841.4069178
63851.9572632
63861.4858501
63869.8676922
63877.154657
63883.4117655
63888.7155798
63893.096064
63896.561885
63899.0333933
63900.578454
63901.193689
63900.9644914
63900.0140244
63898.5741304
63896.8369082
63895.0411071
63893.2921133
63891.5647391
63889.8343112
63887.994263
63885.8433242
63883.3063208
63880.3500587
63877.2575138
63874.2278946
63871.4402129
63869.0192861
63866.7159426
63864.6438074
63863.2338539
63862.1187398
63861.1694674
63860.49473
63859.7642663
63858.7244929
63857.3506351
63855.4552599
63853.0500906
63850.1209318
63846.6673861
63842.9241941
63839.3905098
63836.2952243
63833.5381385
63830.8666066
63828.0566051
63825.2099407
63822.3369784
63819.5847064
63816.9995352
63814.6165954
63812.32022
63810.5661448
63809.7577165
63810.0329053
63811.4920402
63814.0945473
63817.8678454
63822.8393189
63829.0272472
63836.5485925
63845.7443416
63856.9906915
63871.0364616
63888.4396947
63907.5288108
63925.1994605
63941.1839501
63955.3873825
63967.5228884
63977.6030786
63985.4762358
63991.8745879
63997.0580913
64001.2906851
64004.4837796
64006.8811716
64009.0872452
64011.1101976
64012.7070743
64012.778622
64010.7172968
64005.4397316
63998.5776988
63990.4444708
63982.5959149
63975.7903819
63970.7955342
63966.743353
63963.7707848
63961.22352
63959.4272245
63956.6422006
63953.1756167
63948.6057053
63943.1421785
63937.8934508
63932.7614438
63927.9412106
63923.6785654
63919.9600657
63916.5649059
63913.4901524
63910.6141108
63908.0318565
63905.7512242
63903.9842858
63902.8335038
63902.4432525
63903.0175009
63904.5941082
63907.4066525
63911.8762681
63918.330845
63926.9175848
63937.7062014
63950.6536209
63966.208927
63984.4355974
64002.9881552
64019.7482182
64034.5466016
64047.1290845
64057.4399889
64065.5971338
64071.7850454
64076.1907193
64078.8845
64080.039897
64079.7836393
64078.3405772
64075.8984394
64072.6759386
64068.8528888
64064.598494
64060.4401516
64056.3313918
64051.9197104
64046.8037906
64040.4705386
64032.5253073
64023.9641776
64015.5942196
64007.6247429
64000.180101
63993.1780989
63986.7610751
63980.9458472
63976.1605822
63972.1092676
63968.4264344
63965.2500296
63962.783857
63961.2316704
63960.8956917
63962.2290424
63965.6239221
63971.6021043
63980.6049249
63993.0480592
64009.051555
64024.8270567
64038.4759478
64050.0613367
64059.6144797
64067.1784282
64072.9200958
64076.865732
64079.3703586
64080.3800566
64080.2240437
64078.8944313
64076.66632
64073.6520874
64070.0218341
64065.8259717
64061.2391264
64056.5107075
64051.7322774
64046.9914675
64042.2403496
64037.4859796
64032.6969225
64027.691873
64022.5454166
64018.0660289
64014.7097187
64012.6858795
64011.6012063
64007.3518241
64006.6436702
64007.0833293
64006.6857799
64007.0780142
64007.7531197
64010.0895658
64016.0853755
64026.9511346
64041.5177888
64055.0524008
64068.9786726
64084.9318338
64097.958058
64105.7431784
64114.1126384
64122.4081096
64128.5924202
64131.5871835
64135.4220062
64136.9510768
64137.8772534
64138.4048212
64137.6364784
64136.4452496
64134.9810601
64132.8721069
64130.6874336
64128.156751
64125.6909022
64123.2431772
64120.8095058
64118.3020002
64115.7780277
64113.1258417
64110.4666249
64107.7628184
64105.2521768
64103.1686809
64101.7323084
64101.4600438
64102.9812064
64106.6316816
64110.0603119
64112.8367226
64114.6698616
64115.6323337
64115.3078881
64114.0133364
64111.7201927
64108.67067
64104.9152328
64100.8069947
64096.2527664
64091.9454509
64086.8214296
64080.9510477
64074.2381467
64065.9002191
64056.1385766
64045.8716182
64036.0302387
64027.1541716
64018.9521644
64011.6597232
64005.0106524
63998.8728085
63993.1199556
63988.0934196
63983.7275274
63979.412919
63975.6405781
63972.2630499
63969.7707232
63968.2708746
63967.8088368
63969.0986783
63972.3576562
63977.9118409
63985.7872208
63995.9533701
64008.3180888
64023.0088879
64039.83978
64055.8884756
64070.415971
64083.5177349
64095.283928
64105.7372024
64114.8626874
64122.5682393
64128.8668196
64133.5455206
64136.6591227
64138.1210106
64138.0893358
64136.5386718
64133.9043742
64130.4904073
64126.7204866
64122.8267647
64119.0249142
64115.2622592
64111.3027285
64107.2550004
64103.0804364
64098.8073785
64094.4404059
64089.8704702
64085.5700618
64081.6447126
64076.4652746
64071.9814857
64067.4925151
64063.6735076
64060.6463127
64058.6823126
64058.0685729
64059.0124549
64060.1852108
64060.5894574
64060.1518129
64058.5809647
64055.7860176
64052.2376398
64047.986396
64043.0219513
64037.6893906
64032.696636
64027.2203208
64021.8349241
64016.25126
64010.3192617
64003.7767685
63996.366753
63988.9468994
63981.7090263
63974.6128009
63967.7807945
63961.3121763
63955.3426572
63950.3180682
63945.2994738
63940.3737281
63935.8825714
63931.9543499
63929.0564802
63927.283482
63927.0148482
63928.5565925
63932.0881325
63937.7340334
63945.514224
63955.4398852
63967.6001212
63982.2837456
63997.5216566
64010.9327581
64022.6013334
64032.3624917
64040.3580451
64046.434171
64050.8140913
64053.5329593
64054.7631837
64054.8479671
64054.1319135
64053.0012872
64051.8338236
64050.6723946
64048.4299898
64043.1736733
64035.6859533
64027.2138871
64017.9025387
64007.0591903
63994.2381183
63981.410144
63969.7749863
63959.1401828
63949.2767329
63940.0516618
63931.3617086
63923.1309413
63915.1479953
63907.6073091
63901.3302674
63895.278977
63890.0741766
63886.1918388
63884.2176728
63884.6005351
63887.855976
63894.4085631
63904.5643417
63917.9598758
63930.3918501
63940.779954
63949.1088255
63955.4793454
63960.0506157
63962.8958667
63964.1701591
63964.1461975
63962.8474275
63960.6589374
63957.6873913
63953.959463
63949.8525248
63945.4989753
63940.8652322
63936.1495119
63931.6567416
63927.211788
63922.6325584
63918.3654571
63914.2724313
63910.830681
63907.4302917
63904.3817082
63902.4570194
63901.197797
63901.6148675
63903.4375699
63905.4749604
63906.396518
63906.171745
63904.7259951
63902.2543071
63898.8958413
63894.9205555
63890.4901299
63885.6041693
63880.9757197
63875.5858001
63869.041817
63860.9871807
63851.6740401
63842.5044896
63833.5176917
63824.8351333
63816.6048788
63809.6509406
63803.2770235
63797.6534389
63792.9972691
63789.4480463
63787.3442013
63786.9413445
63788.3250982
63791.9270827
63798.277876
63807.9691089
63821.2174818
63834.1407382
63844.6710769
63852.7702312
63858.5127908
63862.0064872
63863.6443145
63863.5176166
63862.0084367
63859.3990494
63855.8690139
63851.5956243
63847.2663766
63842.3339858
63836.9607377
63830.6932287
63822.9596159
63813.112437
63800.7068717
63788.2452372
63777.1176195
63767.2109432
63758.2106389
63749.9498221
63742.1024136
63734.6095438
63727.0396906
63719.8648686
63713.2257553
63706.4360578
63700.9245306
63697.0778422
63695.3892241
63696.0493176
63699.2779508
63704.8395473
63712.6671008
63722.2405464
63733.2991068
63745.2437376
63757.9072146
63770.5892119
63782.4372862
63793.4406269
63803.4772051
63812.304627
63820.3658851
63827.4126997
63833.9817156
63839.5806332
63844.1590086
63845.4474831
63843.5188598
63840.1630833
63836.5166661
63831.7231064
63826.5771692
63821.5680868
63815.3818224
63807.6469911
63797.7215769
63785.1822832
63769.8358575
63751.5549717
63730.6234863
63708.7684755
63689.4043366
63673.2374291
63659.3035977
63647.924305
63639.1576957
63632.9208146
63626.7172134
63620.2120138
63613.0962733
63606.4522585
63599.8382455
63594.5734411
63589.67767
63585.3907711
63582.3989358
63581.2412105
63582.0775118
63585.3516541
63591.519408
63600.9327801
63613.3303676
63625.0266258
63635.1261867
63643.6911921
63650.7049595
63656.0000912
63659.6308117
63661.5727037
63661.8506808
63660.5331163
63657.8523695
63654.1514593
63649.8565167
63645.4878655
63641.4282042
63637.8916498
63634.6033444
63631.3310643
63628.0991895
63624.6060391
63620.8086154
63616.5771135
63612.1721548
63607.9800751
63604.2621218
63601.3729003
63599.5099126
63598.8256921
63598.5351016
63598.1201721
63597.4807823
63596.6393012
63595.6140579
63594.3828537
63593.1340962
63591.6865749
63590.1155322
63588.2700975
63586.2482945
63584.0310395
63581.9648884
63579.6434933
63577.9112217
63576.9125043
63577.0571638
63578.8157571
63582.4302158
63588.2878713
63596.7953031
63606.4505189
63614.7070632
63621.4916059
63626.4741704
63629.6000387
63631.0526392
63630.8033803
63629.0697186
63626.2932745
63622.6350752
63618.1376896
63613.4578373
63608.8077485
63602.9428478
63595.4581411
63585.5871902
63572.8436003
63557.0860828
63541.8801106
63528.7902662
63517.7848481
63508.7074178
63501.1615485
63494.6713526
63488.7992729
63483.1485474
63477.6798929
63472.9867124
63468.5016849
63465.1086409
63463.219402
63463.2475324
63465.4366982
63469.6764599
63475.6618295
63483.1313125
63491.5459919
63500.3846885
63508.8585525
63517.2353452
63525.6231017
63534.7001931
63543.8874632
63552.0456525
63558.6316099
63563.5764464
63567.0020127
63569.0636565
63569.8965536
63569.6656881
63568.3542837
63565.630548
63561.9784698
63557.3035855
63552.3635798
63547.2296729
63542.8988575
63538.3288143
63533.6757808
63529.448663
63525.7292842
63522.0897671
63518.3528673
63514.7466208
63511.509681
63509.0408779
63507.4586037
63506.5684324
63505.1992862
63502.9639817
63500.1890411
63496.9171267
63493.2651561
63489.4952766
63485.705874
63481.9719855
63477.7648696
63472.9110578
63467.1434356
63459.9247023
63450.8115118
63439.6017476
63426.4432548
63411.7167376
63396.8322534
63382.4200574
63368.5644471
63355.3249171
63342.905822
63331.3832145
63320.8931839
63311.4913779
63302.9814208
63295.4920685
63288.9292619
63282.3798341
63276.2519111
63270.5162514
63265.5750184
63262.3148818
63261.0854252
63261.4573988
63263.3866385
63266.7727665
63271.5206329
63277.3686819
63283.2963144
63289.9007989
63297.7107916
63304.9841588
63307.5453473
63310.2175008
63315.2320758
63318.7239761
63319.0678893
63317.4382308
63314.3361404
63310.3808056
63306.7482245
63304.7840865
63303.5357612
63301.9436138
63297.0517247
63295.0757868
63293.1449833
63288.1537783
63283.8123746
63281.5037367
63280.5000414
63279.1439461
63278.1635928
63278.8552303
63278.9762506
63279.402012
63278.6908091
63276.7749593
63273.9547136
63270.7467507
63267.0206887
63262.9474291
63258.7504601
63254.7782863
63250.9143491
63247.3515111
63243.8003164
63240.6200955
63237.7560738
63235.3455606
63233.9955337
63233.4148123
63233.7539884
63235.521414
63238.2757337
63242.9018852
63248.7448731
63254.5699585
63258.180895
63259.6112363
63258.715545
63255.7213267
63251.3088938
63246.9571728
63242.0563533
63236.798672
63230.5681506
63222.3782933
63211.6199206
63198.645408
63184.3786604
63169.6775252
63154.3551713
63137.7392048
63120.8594874
63104.1357209
63088.2379356
63073.3414915
63059.8311356
63048.1147655
63038.6747865
63030.8179684
63025.4295462
63021.1260693
63018.9378528
63019.2394575
63021.3297117
63024.2973613
63027.6918148
63031.6002161
63035.7564654
63040.2294114
63045.0008027
63050.2358272
63055.242801
63058.9287546
63060.9253109
63060.9730784
63058.3773928
63053.9043656
63046.3660558
63035.567497
63022.0660459
63006.407048
62988.8187263
62969.9377635
62950.0533145
62928.229732
62904.9021118
62882.8927272
62862.1975998
62843.3526675
62826.6698762
62812.8711484
62802.1598427
62794.4139346
62789.8467066
62787.4803358
62788.3567909
62791.3137904
62796.1391264
62802.4343511
62810.1638479
62818.9301557
62828.5738709
62839.0629481
62850.6290831
62863.3805846
62876.2402348
62888.7908567
62900.9315012
62912.501063
62923.3496603
62933.2978454
62941.9862259
62947.9831649
62951.8023268
62953.8557949
62954.2882749
62953.6116272
62952.1919576
62950.2093797
62948.1161721
62946.305271
62945.0285319
62944.4931308
62944.8528441
62946.2479142
62948.7012558
62952.2183583
62956.73046
62962.3051586
62968.6613156
62975.6297356
62983.0893151
62990.8469693
62998.5725778
63005.8818672
63012.5828108
63018.2349785
63022.7597881
63026.1040506
63027.9505285
63028.5178651
63027.5747575
63025.4578253
63022.4720008
63018.9637242
63015.1892719
63011.5904847
63008.5975578
63006.2304289
63004.6009682
63003.7297389
63004.0135923
63005.3143459
63007.780862
63011.6507069
63017.1245682
63023.801949
63032.0917451
63041.3813165
63052.0100295
63063.7629527
63076.5242107
63089.7866979
63103.3284333
63117.0029406
63130.4572553
63143.7726757
63156.6935795
63169.2192898
63181.0271158
63192.4994605
63203.5165385
63213.5665006
63223.2879139
63232.3493286
63240.9571106
63248.6932263
63256.2800409
63262.8738914
63268.7687105
63274.1258632
63278.5948261
63282.3009691
63285.5745005
63287.9584124
63289.7939434
63290.9936785
63291.6676032
63292.4844467
63293.5758906
63294.7902557
63297.0881122
63300.6254538
63304.6654608
63309.8191884
63314.9994836
63320.9765775
63328.0592049
63335.0845344
63342.474354
63350.0036416
63358.4655232
63368.7164046
63380.92725
63395.3156186
63411.1848969
63428.1643337
63445.5835295
63462.4813353
63476.1818519
63487.4237063
63497.126112
63504.7912705
63511.2964546
63516.4793526
63520.7195111
63523.7648328
63525.6880849
63526.5761918
63526.6075919
63525.8320909
63524.6886558
63523.1573875
63521.5408501
63519.9164686
63518.3935373
63517.056889
63516.7199858
63517.9164249
63520.8539333
63525.5399037
63531.5866128
63538.7164928
63546.6513716
63555.3815795
63564.6727678
63574.5955339
63584.7541872
63594.5783001
63604.451537
63614.9984667
63624.6245445
63635.2210128
63644.6660078
63653.8181351
63665.0059196
63674.1337426
63681.1188421
63689.0005321
63697.0766105
63705.8193358
63716.5206076
63728.9708519
63742.1099058
63754.9231159
63767.8969573
63781.3681164
63795.2729634
63809.3541051
63823.278529
63836.6978045
63849.1129006
63860.3514344
63870.5057416
63880.3458364
63890.0541354
63899.405086
63908.2138188
63916.4577649
63924.0984418
63931.3111156
63937.9688371
63944.1571257
63949.9736056
63955.5024795
63960.7614154
63965.7678242
63970.5197367
63974.7687847
63978.6639585
63981.6397028
63984.0199417
63985.4011928
63986.0616404
63985.8247931
63985.0613128
63984.1548201
63983.4367091
63983.5957667
63984.5472801
63986.7624337
63990.0518346
63994.6016803
64000.4052583
64007.5150904
64016.0543361
64025.8698765
64036.9950663
64049.3016473
64062.5066582
64076.4104131
64090.2903643
64104.2680227
64118.4094255
64131.9812633
64145.0220177
64157.025406
64167.5229299
64176.8481727
64185.0170549
64192.6825228
64200.8085877
64209.8544423
64219.856162
64231.0174166
64243.4552432
64257.3412133
64272.7217665
64288.064481
64303.3593909
64319.6104952
64335.5383423
64350.023334
64361.6303435
64370.3439976
64377.0371861
64381.8424492
64385.0409885
64386.8486672
64387.7381855
64387.5984773
64386.6079909
64384.8387237
64382.8356502
64380.8074293
64379.9986524
64380.8407838
64382.7197235
64385.86241
64391.8319057
64399.7033309
64410.384155
64423.4372819
64438.0711102
64454.1016173
64471.1404509
64488.4917548
64505.4401308
64524.1123216
64543.4201823
64564.6511227
64585.7107697
64603.6722489
64618.3393675
64632.1775281
64645.8291463
64658.0970484
64667.5472362
64674.1092162
64677.6268197
64678.5640316
64677.7806518
64675.9126677
64673.8282124
64672.5204166
64672.4489869
64674.0051831
64677.3490893
64682.8335887
64690.2708038
64699.7988165
64710.9407057
64723.2103914
64736.4084188
64749.871587
64763.8800804
64777.7430049
64790.70615
64802.2163275
64812.0311567
64819.976168
64826.067885
64830.7070729
64834.2993016
64837.2479059
64839.8318288
64842.8822499
64846.7851763
64851.6395541
64857.6668903
64865.1419055
64873.9290839
64884.099861
64895.4289367
64907.453442
64920.2076324
64933.0047995
64945.8312521
64958.8688979
64972.1542188
64985.1790008
64997.6919752
65009.8793174
65021.7746634
65032.5395191
65041.6242978
65048.6980419
65054.2725326
65058.1481341
65060.9638499
65062.8220908
65064.2065831
65065.644611
65067.7907102
65070.9398867
65074.8328043
65080.0620649
65086.8802299
65095.134767
65104.7691527
65115.5782081
65127.7078419
65141.3154934
65156.5251171
65172.6381234
65189.5659391
65206.3787523
65221.6614934
65236.2857113
65249.8900796
65261.8110602
65274.8959994
65290.1521283
65307.0718598
65324.8658875
65341.8935211
65358.3066808
65375.3734007
65391.9507579
65406.9034849
65421.3218239
65436.2756005
65451.4904147
65465.1857824
65476.0889893
65486.3222478
65497.3113524
65508.8556946
65520.7185719
65532.4051121
65543.5407382
65553.9345714
65563.6399671
65572.7648304
65581.1857288
65588.9283449
65596.1830951
65602.8691789
65609.4734019
65616.0849418
65622.7559687
65629.9783416
65637.6511391
65645.9679528
65655.0076724
65664.7764804
65675.2803491
65686.4623792
65698.2592415
65710.5674842
65723.2529508
65736.1940295
65749.1865137
65762.4808713
65775.8666639
65789.6139112
65803.6549188
65818.262687
65833.3620951
65849.024669
65865.5857451
65883.1572572
65901.8121015
65920.0245717
65937.3866628
65953.7569911
65969.1583631
65983.1335957
65995.9647396
66007.3912598
66018.3395053
66028.9075685
66038.0351016
66045.8595803
66052.3832111
66057.7294406
66062.1837248
66066.0777332
66070.5945859
66076.5943356
66083.9172527
66091.7480931
66098.6623347
66105.2123663
66112.6218132
66121.4908742
66131.6637535
66142.8802073
66154.3287139
66166.0195085
66179.2855088
66192.1178041
66205.5734725
66219.2729179
66232.7538063
66246.7434232
66260.4461145
66274.2844683
66288.0016713
66301.6667908
66315.2397947
66328.5176677
66341.8038886
66355.130163
66368.6188487
66382.4776469
66396.79902
66411.0177118
66425.7030457
66440.4945114
66455.3594183
66470.2888008
66485.1165808
66499.8294699
66514.5572917
66529.8486853
66545.6596458
66562.3648201
66579.938658
66598.5516128
66618.0807745
66636.9931094
66650.8155498
66662.2869479
66676.5833946
66693.6236448
66712.6697188
66733.4150691
66756.1708305
66781.4869506
66809.423189
66840.2977365
66873.1785272
66908.54189
66946.7677855
66986.2411671
67027.1710803
67070.8575783
67114.4452807
67155.9181749
67195.7950191
67234.493531
67272.0035624
67308.3260597
67343.4761005
67377.3405848
67410.032466
67441.1585794
67470.814963
67498.6517728
67525.109254
67549.555165
67572.7774008
67595.0617527
67617.4771984
67640.2013108
67662.8975621
67685.5278998
67708.0235624
67730.1814199
67752.0660831
67773.1788059
67793.3835006
67813.2929719
67831.2234649
67848.4757735
67864.503257
67879.7714443
67893.3911654
67906.3767682
67919.1287725
67931.070327
67942.6671575
67953.2376938
67962.9348228
67971.7756151
67979.8649334
67987.3867205
67994.5025655
68001.0513954
68007.2322248
68012.8848655
68018.2664519
68023.0786113
68027.2061197
68031.0657234
68035.5344423
68042.3294324
68049.6269709
68053.1979715
68054.3407237
68056.1814581
68060.6973284
68068.1058435
68076.9935427