/*--------------------------------*- C++ -*----------------------------------*\
  =========                 |
  \\      /  F ield         | OpenFOAM: The Open Source CFD Toolbox
   \\    /   O peration     | Website:  https://openfoam.org
    \\  /    A nd           | Version:  6
     \\/     M anipulation  |
\*---------------------------------------------------------------------------*/
FoamFile
{
    version     2.0;
    format      ascii;
    class       volScalarField;
    location    "0.0005";
    object      rho;
}
// * * * * * * * * * * * * * * * * * * * * * * * * * * * * * * * * * * * * * //

dimensions      [1 -3 0 0 0 0 0];

internalField   nonuniform List<scalar> 
32000
(
0.0786121548205
0.0786116401
0.0786116819266
0.0786115865654
0.0786115596336
0.0786114405199
0.0786113958174
0.0786112928259
0.0786112599892
0.0786111781244
0.0786111311299
0.0786110017418
0.0786108649875
0.0786105688612
0.0786102101961
0.0786096300791
0.0786089483011
0.0786080238084
0.0786069959176
0.0786057199469
0.0786043470138
0.0786027183058
0.0786009968159
0.0785990278631
0.0785969568335
0.0785946381895
0.0785922072062
0.0785895459884
0.0785867847211
0.078583780297
0.0785806644067
0.0785773333375
0.0785738953935
0.0785702670451
0.0785665202939
0.0785626251166
0.0785586212727
0.0785545096086
0.0785504704476
0.0785467307011
0.078543283078
0.0785401122925
0.0785372128282
0.0785345553642
0.0785321424364
0.078529924752
0.0785278774234
0.0785259462889
0.0785240949614
0.0785222250771
0.0785202470386
0.078518093566
0.0785157413093
0.0785131417584
0.0785102965243
0.0785071796628
0.078503795969
0.0785001117905
0.0784961325696
0.0784918296816
0.0784871997874
0.0784821968069
0.0784768257668
0.0784711446426
0.0784650764048
0.0784585302224
0.0784516962274
0.0784443595129
0.0784366667814
0.0784283819055
0.0784198165057
0.0784105048411
0.0784009705298
0.078390696622
0.0783800501508
0.0783687438388
0.0783571301132
0.0783448849464
0.078332234369
0.0783191267387
0.0783057224778
0.0782918614389
0.0782778020866
0.0782635248671
0.0782490389953
0.0782345392729
0.0782200181701
0.0782055596922
0.078191310928
0.0781773211801
0.0781635112631
0.0781497845025
0.0781362067615
0.0781227596081
0.0781089536714
0.0780945429729
0.0780802135417
0.0780643911665
0.078046965119
0.0780295413218
0.0780086028829
0.0779852720557
0.0779614734495
0.0779302748428
0.0778965107072
0.0778589374218
0.0778067385328
0.0777540518064
0.0776829315545
0.0775936144124
0.0774959697135
0.0773538600981
0.077202722307
0.0769965545136
0.0767608596141
0.0764757064773
0.0761652123672
0.0759149995023
0.0757307579131
0.0755964731832
0.075498911966
0.075427801229
0.0753754537757
0.0753363534048
0.0753065118038
0.0752831355689
0.0752642391181
0.0752483677295
0.0752344916146
0.0752219109651
0.0752100750296
0.0751986937158
0.0751875224348
0.0751764061433
0.0751652876308
0.0751541244249
0.075142871144
0.0751314949407
0.0751199755102
0.0751082959725
0.0750964262146
0.0750843733702
0.0750720915757
0.0750595902651
0.0750468357943
0.075033808709
0.0750204765852
0.0750068409808
0.0749928270702
0.0749784290855
0.0749636236258
0.0749483460663
0.0749326409457
0.0749164272651
0.0748997619888
0.0748825941926
0.0748649472823
0.0748468276722
0.0748282079047
0.0748091325138
0.0747895161179
0.0747693653978
0.0747486234913
0.0747272457812
0.0747052383189
0.0746825765612
0.0746592833828
0.0746353571646
0.0746108560296
0.0745857041464
0.0745599834128
0.0745335637808
0.0745064256679
0.0744791049868
0.0744532502015
0.0744290328742
0.0744064465197
0.0743853669999
0.0743658284194
0.0743477290719
0.0743308435516
0.0743150607967
0.0743001883563
0.0742860065311
0.074272432683
0.074259286585
0.0742465142279
0.0742342109442
0.0742223258516
0.0742108204025
0.0741997561067
0.0741891498345
0.0741790729697
0.0741696202124
0.0741607709965
0.0741525657014
0.0741448654993
0.0741377786183
0.0741309766331
0.074124496001
0.0741183427621
0.0741123174279
0.0741065208156
0.0741010340297
0.0740957960191
0.0740908538483
0.0740862407845
0.0740818690341
0.0740777063548
0.0740738333014
0.0740702891077
0.0740670083513
0.0740639343261
0.0740610799232
0.0740585272567
0.0740563441348
0.0740545468441
0.0740531402931
0.0740520633035
0.0740512776535
0.0740507753394
0.0740504181281
0.0740504037455
0.0740506639869
0.0740510863521
0.0740515982367
0.0740521452384
0.0740527023355
0.0740532401484
0.0740537449227
0.0740542098991
0.0740546282102
0.0740549966616
0.0740553475313
0.0740557035834
0.0740560816522
0.0740565049706
0.0740570032607
0.0740576112916
0.0740583630831
0.0740592862201
0.0740603989452
0.0740617097677
0.0740632183509
0.074064916534
0.0740667903947
0.0740688239457
0.0740709967861
0.0740733123173
0.0740757635222
0.0740783515437
0.0740810786302
0.0740839569693
0.0740870099583
0.0740902641206
0.0740937449992
0.0740972416067
0.074100536916
0.0741036074647
0.0741064345367
0.074108997724
0.0741113061371
0.0741133767345
0.0741152315921
0.0741169002091
0.0741184273959
0.0741198464196
0.0741212008357
0.0741225206676
0.0741238319029
0.0741251575912
0.0741265012729
0.0741278637038
0.074129240129
0.0741306097731
0.0741319703269
0.0741332973356
0.0741345832403
0.0741358060482
0.0741369827113
0.0741381026074
0.0741391843195
0.0741402452417
0.0741412843659
0.0741423108194
0.0741433279273
0.0741443424309
0.0741453604102
0.0741463886343
0.0741474364918
0.0741485179123
0.0741496478624
0.0741508420552
0.0741521185204
0.0741535002098
0.0741550211445
0.074156726882
0.0741586569958
0.0741608290054
0.0741632636699
0.0741660235823
0.0741691795553
0.0741727412811
0.0741767359883
0.0741812797061
0.0741864223736
0.0741922379574
0.0741986826392
0.07420493981
0.0742109331685
0.074216665611
0.074222134603
0.0742273618456
0.0742323671725
0.0742371466485
0.0742416815292
0.074245951372
0.0742499400828
0.0742536358829
0.0742570321658
0.0742601286137
0.0742629333023
0.0742654638756
0.0742677470906
0.074269815735
0.074271703944
0.0742734438257
0.0742750629879
0.0742765842185
0.0742780254143
0.0742794020882
0.0742807264652
0.0742820090444
0.0742832592453
0.0742844816764
0.0742856887858
0.0742868916314
0.0742880993698
0.0742893340971
0.0742906139908
0.0742919605204
0.0742933957597
0.0742949473757
0.0742966515688
0.0742985428678
0.0743006402165
0.0743029576085
0.0743055132625
0.0743083005999
0.074311306303
0.0743145232312
0.0743179058189
0.07432134893
0.0743247561435
0.074328139408
0.0743315127198
0.0743348865533
0.0743382806892
0.0743417267546
0.0743452610581
0.0743489329622
0.0743528041288
0.0743569408972
0.074361411601
0.0743662892199
0.0743716517274
0.0743775782502
0.0743841499896
0.0743914528015
0.0743995760628
0.0744085768174
0.0744176667565
0.0744262862808
0.0744344337955
0.0744421119415
0.074449323341
0.0744560726432
0.0744623674658
0.0744682187809
0.074473641486
0.0744786542987
0.0744832797279
0.0744875439864
0.0744914763591
0.0744951084045
0.0744984733757
0.0745016048512
0.074504535785
0.0745072978533
0.0745099204309
0.074512430531
0.0745148528818
0.0745172104297
0.0745195238845
0.0745218117058
0.074524088311
0.0745263634961
0.0745286459747
0.0745309417305
0.0745332550169
0.0745356012349
0.0745380058159
0.0745404975162
0.0745431075963
0.0745458740889
0.0745488468875
0.0745520905064
0.074555685336
0.0745597213738
0.074564287506
0.0745694655575
0.0745753105634
0.0745812160453
0.0745867384618
0.0745918913739
0.0745966989004
0.0746011911126
0.0746054020073
0.0746093674145
0.0746131246255
0.0746167109888
0.0746201628124
0.0746235136379
0.0746267933148
0.0746300273252
0.0746332378053
0.0746364462738
0.0746396768712
0.0746429511899
0.0746462903515
0.0746497127942
0.0746532356138
0.0746568917206
0.0746607412783
0.074664860514
0.0746693217531
0.0746742116436
0.0746796568484
0.0746858045985
0.0746928065185
0.0747008388052
0.0747096488794
0.0747180077179
0.0747257235163
0.0747327899091
0.0747392204259
0.0747450430995
0.0747502981582
0.0747550339502
0.0747593052216
0.0747631695282
0.0747666852715
0.0747699092852
0.0747728945036
0.0747756897256
0.0747783372634
0.0747808733638
0.0747833269374
0.0747857218888
0.0747880748478
0.0747903992176
0.0747927172574
0.0747950415564
0.0747973910681
0.0747997997863
0.0748023222259
0.0748050319639
0.0748080192991
0.0748113929296
0.0748152895873
0.07481986741
0.0748252840676
0.0748316986801
0.0748392914731
0.0748480655589
0.0748565532711
0.074864295802
0.0748713241976
0.0748776794916
0.0748834136907
0.0748885864158
0.0748932616668
0.0748975063734
0.074901386631
0.0749049671261
0.0749083078458
0.0749114635431
0.0749144819072
0.0749174032831
0.0749202600066
0.0749230784614
0.0749258772598
0.0749286692648
0.0749314618761
0.0749342580733
0.0749370609121
0.0749398864383
0.0749427611617
0.0749457228526
0.0749488217617
0.0749521218047
0.0749557057419
0.0749596695099
0.0749641232922
0.0749691889767
0.0749749956536
0.07498167939
0.0749893913417
0.0749983010775
0.075008588389
0.0750196723322
0.0750300824123
0.0750396980629
0.0750485381049
0.075056633427
0.0750640235275
0.0750707550797
0.0750768826667
0.0750824632892
0.0750875573075
0.0750922253176
0.0750965279918
0.0751005226436
0.0751042639532
0.0751078010565
0.0751111793711
0.0751144371298
0.075117608725
0.0751207224516
0.0751238013311
0.0751268618007
0.0751299156217
0.0751329711029
0.0751360339352
0.0751391156116
0.075142239082
0.0751454405409
0.0751487671888
0.0751522779558
0.0751560431869
0.0751601459507
0.0751646792873
0.0751697439318
0.0751754469836
0.0751818968389
0.0751891978998
0.075197441504
0.0752066379834
0.0752157646821
0.0752243733487
0.0752325047796
0.0752402027347
0.0752475120173
0.0752544779847
0.0752611457356
0.0752675587022
0.0752737581436
0.0752797827224
0.0752856679362
0.0752914459378
0.0752971449476
0.0753027896414
0.0753083999603
0.07531399211
0.075319576964
0.0753251624415
0.0753307544543
0.0753363610853
0.0753419985715
0.0753476927449
0.0753534789857
0.0753594018549
0.0753655164794
0.0753718884805
0.0753785936074
0.0753857179582
0.0753932910345
0.0754007733879
0.0754079648177
0.075414860639
0.0754214676849
0.0754278010065
0.0754338823321
0.0754397375562
0.0754453963105
0.0754508889616
0.0754562466547
0.075461497825
0.0754666692495
0.0754717841079
0.075476861533
0.0754819169289
0.075486960694
0.0754919998419
0.0754970433056
0.0755021054924
0.0755072144187
0.0755124102165
0.0755177469367
0.0755232963129
0.0755291542991
0.0755354405244
0.0755422957015
0.0755498889771
0.0755584295221
0.0755678004966
0.0755767561622
0.0755850282039
0.0755925863193
0.0755994234308
0.0756055521099
0.0756110015462
0.0756158141665
0.0756200424285
0.0756237439001
0.0756269810408
0.0756298172921
0.0756323154351
0.075634535993
0.0756365354327
0.0756383648852
0.0756400698676
0.0756416898594
0.0756432571912
0.0756447962761
0.075646324455
0.0756478527243
0.0756493874427
0.0756509443394
0.0756525546258
0.0756542660523
0.0756561426876
0.0756582661591
0.0756607367351
0.0756636740925
0.075667217989
0.0756715281994
0.0756767840729
0.0756831836295
0.0756909429277
0.0757002959971
0.0757114964734
0.0757248020319
0.0757388406939
0.0757517281689
0.0757634031682
0.0757738871742
0.0757832195459
0.0757914545603
0.0757986585075
0.0758049069092
0.0758102821163
0.0758148705335
0.0758187604887
0.075822039763
0.0758247938228
0.0758271045997
0.0758290484141
0.0758306957428
0.0758321103921
0.0758333478362
0.0758344565227
0.0758354757298
0.0758364384592
0.0758373688782
0.0758382852714
0.0758391982248
0.0758401166553
0.075841061079
0.0758420646925
0.0758431736523
0.0758444508003
0.0758459761857
0.0758478432427
0.0758501552552
0.0758530245131
0.0758565712944
0.0758609197998
0.0758661934818
0.0758725128235
0.07587999718
0.0758887666061
0.0758989451535
0.0759106705247
0.0759241097438
0.0759383245128
0.0759516583502
0.0759640071128
0.0759753611947
0.0759857197401
0.0759950920077
0.0760034981468
0.0760109703155
0.0760175524264
0.0760232985772
0.0760282711612
0.0760325388614
0.0760361746648
0.0760392537616
0.0760418512463
0.0760440410112
0.0760458929913
0.0760474727654
0.0760488396682
0.0760500467202
0.0760511391528
0.076052154799
0.0760531236017
0.0760540681761
0.0760550037073
0.0760559389229
0.0760568874814
0.0760578772934
0.0760589507054
0.0760601677154
0.0760616063497
0.0760633603416
0.0760655380065
0.0760682612999
0.076071661409
0.0760758730503
0.0760810292073
0.0760872535135
0.0760946464396
0.0761031546543
0.076111484282
0.0761192219545
0.0761264370182
0.0761332023882
0.0761395911603
0.0761456746755
0.0761515200604
0.076157188746
0.0761627344347
0.0761682023945
0.0761736280526
0.0761790366819
0.076184442977
0.0761898569947
0.0761953078171
0.0762008498221
0.0762065670518
0.0762125792769
0.0762190501286
0.0762260751004
0.0762329246819
0.0762392965134
0.0762451186143
0.0762503434376
0.0762549468467
0.0762589258603
0.0762622959318
0.0762650878244
0.0762673445885
0.0762691180244
0.0762704659194
0.0762714486392
0.0762721272037
0.0762725606768
0.0762728052812
0.0762729124973
0.0762729314382
0.0762728859078
0.0762727899705
0.0762725759767
0.0762721834994
0.0762717158997
0.0762713545925
0.0762711001782
0.0762709357139
0.0762708369014
0.0762707845463
0.0762707911809
0.0762708855799
0.0762711466792
0.0762716594032
0.0762725203292
0.0762738363775
0.0762757198016
0.0762782826483
0.0762816311899
0.0762858611327
0.0762910534985
0.0762972705983
0.0763045523677
0.0763129146812
0.0763223524265
0.0763328548117
0.0763439194055
0.076354548347
0.076364691947
0.0763743617543
0.0763835498465
0.0763922363295
0.0764003961657
0.0764080047188
0.0764150419687
0.0764214955429
0.076427362596
0.0764326505855
0.0764373772607
0.0764415697908
0.0764452636997
0.076448501008
0.0764513287193
0.0764537965631
0.0764559556556
0.0764578562496
0.0764595468837
0.0764610724055
0.0764624735924
0.0764637859437
0.0764650393701
0.0764662578688
0.0764674591655
0.0764686550475
0.0764698515789
0.0764710568658
0.0764722909371
0.0764735860621
0.0764749869546
0.0764765504087
0.0764783435115
0.0764803928196
0.0764823707014
0.0764841608988
0.0764857571693
0.0764871638493
0.0764883935718
0.0764894647297
0.0764903995545
0.0764912218839
0.0764919557887
0.0764926238704
0.0764932464598
0.0764938404504
0.076494419258
0.0764949920719
0.0764955641381
0.0764961405179
0.0764967344988
0.0764973689486
0.0764980770845
0.0764989030812
0.0764999023433
0.0765011412964
0.0765026965534
0.0765046537558
0.0765071056479
0.0765101498035
0.0765138860929
0.0765184143086
0.0765238325446
0.0765302369007
0.0765377232253
0.0765463918238
0.0765563561182
0.0765677567567
0.0765807637756
0.0765942888115
0.0766069067511
0.0766185402223
0.0766291636091
0.0766387652546
0.0766473489589
0.0766549335878
0.0766615525512
0.0766672522331
0.0766720900523
0.0766761323006
0.0766794509062
0.0766821220433
0.0766842227
0.0766858299965
0.0766870182341
0.0766878588965
0.0766884185175
0.0766887585517
0.0766889354513
0.0766889995339
0.0766889975325
0.0766889541777
0.0766888211206
0.0766885264159
0.0766880161282
0.0766874693168
0.0766870468193
0.0766867398927
0.076686532907
0.0766864058398
0.0766863362807
0.0766862998029
0.0766862990927
0.0766863634916
0.0766865482708
0.0766869070383
0.0766874947991
0.0766883672476
0.0766895809682
0.0766911939931
0.0766932642286
0.0766958463581
0.0766989908816
0.0767027471165
0.0767071674931
0.0767123086936
0.0767182309137
0.0767249998921
0.0767326925145
0.076741402486
0.0767512482787
0.0767623896925
0.076775010212
0.0767878114718
0.076799661975
0.0768104679892
0.0768201679872
0.0768287300689
0.0768361520943
0.076842459894
0.076847704083
0.0768519559996
0.076855303536
0.0768578464732
0.0768596925384
0.0768609531865
0.0768617407465
0.0768621656089
0.076862334173
0.0768623472264
0.0768622630473
0.0768619647084
0.0768612651723
0.0768599822979
0.076857975911
0.0768558063107
0.0768540532491
0.0768527063582
0.0768517279406
0.0768510665384
0.0768506609899
0.0768504435632
0.0768503419146
0.076850328584
0.0768504719125
0.076850921595
0.0768518458951
0.0768534292618
0.0768558645643
0.0768593544249
0.0768641126256
0.0768703618956
0.0768783308231
0.0768882491162
0.0769001703054
0.0769118202327
0.0769222736294
0.0769315481129
0.076939682289
0.0769467322211
0.0769527677167
0.0769578683086
0.0769621194013
0.0769656089897
0.076968424952
0.0769706534086
0.0769723772729
0.0769736757975
0.0769746234441
0.0769752898075
0.0769757379647
0.076976024294
0.076976197407
0.0769762969256
0.076976354957
0.0769763929905
0.0769764255774
0.0769764599351
0.0769765133414
0.076976619245
0.0769768267436
0.0769771989102
0.0769778099674
0.0769787436133
0.0769800888393
0.0769819460301
0.0769844307293
0.0769876770204
0.0769918448857
0.0769971136004
0.077003671099
0.0770116964486
0.0770213436384
0.0770326840216
0.077044156053
0.0770547019668
0.0770643400936
0.0770730861533
0.0770809578068
0.0770879793466
0.0770941858711
0.0770996206148
0.0771043356672
0.0771083925828
0.0771118583067
0.0771148044858
0.0771173049635
0.0771194330627
0.0771212602165
0.0771228539909
0.077124275586
0.0771255793644
0.0771268097006
0.077128002275
0.0771291802635
0.0771303580116
0.0771315487495
0.077132788056
0.0771341357509
0.0771356777911
0.0771375266602
0.0771398226418
0.0771427347016
0.0771464617049
0.0771512343254
0.0771570387796
0.0771624797219
0.077167177242
0.0771711262192
0.0771743518297
0.0771768992679
0.0771788273087
0.077180204712
0.0771811104279
0.0771816328563
0.0771818703029
0.0771819291833
0.0771818881168
0.077181607151
0.0771808850956
0.0771795472029
0.0771774440051
0.0771744286287
0.0771708759399
0.0771677941911
0.0771652677512
0.0771632658112
0.0771617410362
0.0771606404504
0.0771599096586
0.077159489133
0.0771593097332
0.0771593222342
0.0771594757127
0.0771598596259
0.0771605927723
0.0771617860076
0.0771635596914
0.0771660802049
0.0771695588235
0.0771742085799
0.0771801781043
0.0771875077255
0.0771961581764
0.0772061075882
0.0772174354486
0.0772300265169
0.0772422437576
0.0772536764627
0.0772643162714
0.077274137074
0.0772831068098
0.0772912005137
0.0772984088031
0.0773047418672
0.0773102295646
0.077314918863
0.0773188707421
0.0773221562529
0.0773248519954
0.0773270351897
0.0773287802596
0.0773301612365
0.077331259043
0.0773321619415
0.0773329220026
0.077333498266
0.0773339458793
0.0773343046455
0.0773346207085
0.0773349100577
0.0773351805839
0.0773354591687
0.0773357274246
0.0773360452088
0.0773365052857
0.0773371041576
0.0773380518013
0.0773394656229
0.0773414931725
0.0773442635737
0.0773478789912
0.0773514737189
0.0773545053317
0.0773569756003
0.0773589066551
0.0773603393141
0.0773613294268
0.0773619413243
0.0773622513352
0.0773623490221
0.0773622921385
0.0773621124914
0.0773618508355
0.0773613518721
0.0773604366174
0.0773590142509
0.0773571309491
0.0773554325931
0.0773540968236
0.0773531037837
0.0773524260517
0.0773520194187
0.0773518232414
0.0773517796633
0.0773518691664
0.0773520492385
0.0773524414486
0.0773532026943
0.0773544696587
0.0773563350435
0.0773589102695
0.0773623915383
0.077367018297
0.0773729594681
0.0773802747256
0.0773889834402
0.0773991574627
0.0774109623306
0.0774230644263
0.0774341474108
0.0774441458586
0.0774530232644
0.077460758783
0.0774673492137
0.0774728121638
0.0774771901735
0.0774805556869
0.0774830140332
0.0774846983604
0.077485754961
0.0774863214489
0.0774865245112
0.0774863776914
0.0774859342031
0.077485224605
0.0774840706263
0.0774821957493
0.0774792210998
0.0774748505947
0.0774703102118
0.0774665398599
0.0774634988235
0.0774611331056
0.0774593751873
0.0774581394956
0.0774573184886
0.0774567822735
0.0774564803613
0.0774563999867
0.0774565245817
0.0774571342988
0.0774585147424
0.077460885213
0.0774644947198
0.0774696129692
0.077476495397
0.0774854164902
0.0774961611546
0.0775062692712
0.0775151772486
0.0775229122817
0.0775295207558
0.0775350670423
0.077539632046
0.0775433091345
0.0775462013454
0.0775484152927
0.0775500574193
0.0775512286036
0.0775520214356
0.0775525195182
0.077552797586
0.0775529225261
0.0775529526642
0.0775529314681
0.0775528858228
0.0775528421247
0.077552823309
0.0775528503567
0.077553002217
0.077553362105
0.0775540125686
0.0775550800038
0.0775567402003
0.0775592044071
0.0775626717898
0.0775663049467
0.0775693327846
0.0775717457006
0.0775735807714
0.0775749002887
0.0775757820425
0.0775763125955
0.0775765835924
0.077576692739
0.077576676421
0.077576448772
0.0775758561491
0.0775747507773
0.0775732385386
0.0775719932222
0.0775711075044
0.0775705460191
0.0775702493095
0.0775701488216
0.0775702354621
0.0775704449485
0.0775708786923
0.0775717246622
0.0775732277086
0.0775756269439
0.077579144984
0.0775840634286
0.0775907540662
0.0775995623706
0.0776105953784
0.0776214484781
0.0776309342894
0.077639037374
0.0776457789307
0.0776512165204
0.0776554391188
0.0776585643434
0.0776607364384
0.0776621188756
0.077662882845
0.0776631936617
0.077663186729
0.0776629137428
0.0776623526902
0.0776612141048
0.0776591511055
0.0776557914579
0.0776509250895
0.0776461411622
0.0776422302091
0.0776391458565
0.0776368177132
0.0776351537965
0.077634047244
0.0776333820069
0.0776330348438
0.07763287933
0.0776328928787
0.0776331944316
0.0776340505373
0.077635669259
0.0776382553745
0.0776419755507
0.0776469258798
0.0776531399317
0.0776605734132
0.0776690855759
0.0776784674677
0.0776885189208
0.0776991171198
0.0777097045138
0.0777199332404
0.0777296807258
0.0777387931803
0.0777471209458
0.0777545443728
0.0777609863268
0.0777664162686
0.0777708456216
0.0777743247596
0.0777769349004
0.0777787843196
0.0777800006489
0.0777807232471
0.0777810923762
0.0777812531456
0.0777812175529
0.0777808737529
0.0777799368364
0.0777780879331
0.0777749931825
0.0777703567367
0.0777639133842
0.0777553794089
0.0777457594548
0.0777372026245
0.077729846557
0.0777236570101
0.077718575412
0.0777145220643
0.077711401984
0.077709108521
0.0777075240504
0.0777065208973
0.0777059625096
0.0777057089409
0.0777056155112
0.0777057195462
0.0777062330223
0.0777074524628
0.0777096469225
0.0777130468863
0.0777178650011
0.0777243299698
0.0777326575367
0.0777426074908
0.0777520647373
0.0777605935148
0.0777682461319
0.0777750556206
0.0777810483809
0.07778625509
0.0777907158272
0.077794482206
0.077797618141
0.0778001971883
0.0778022997004
0.0778040082754
0.0778054043302
0.0778065637449
0.0778075548546
0.0778084365531
0.0778092562938
0.0778100494064
0.0778108382457
0.077811637474
0.0778124675146
0.0778133737145
0.0778144204039
0.0778156800224
0.0778172284084
0.0778191401057
0.0778214611973
0.0778238982545
0.0778261385792
0.0778282118721
0.0778301562296
0.0778320065686
0.0778337914743
0.0778355318362
0.0778372438634
0.0778389506074
0.0778406683454
0.077842433207
0.0778443105844
0.0778463852937
0.0778487544307
0.077851536061
0.0778548714414
0.0778589095208
0.0778638075653
0.0778697429302
0.077876917156
0.0778855617139
0.0778946701985
0.0779028886895
0.077910094877
0.0779162357378
0.0779212994308
0.0779253148025
0.0779283496421
0.0779305095442
0.0779319357265
0.0779327968406
0.0779332751483
0.0779334740515
0.077933341772
0.0779327112536
0.077931124118
0.0779281384202
0.0779234095176
0.0779169223842
0.0779108354891
0.0779058568305
0.0779019493298
0.0778990129312
0.0778969127577
0.0778954967086
0.0778946100715
0.0778941077214
0.0778938299712
0.0778938426521
0.0778941835634
0.077895102843
0.0778968809499
0.077899810814
0.0779040666502
0.077909627634
0.0779163235315
0.077923940487
0.0779322629995
0.0779409236755
0.0779494952985
0.077958065963
0.0779668160048
0.0779761482508
0.0779857739531
0.0779947888069
0.078002947331
0.0780101117229
0.0780162204501
0.0780212759671
0.0780253303193
0.0780284672545
0.0780307887208
0.0780324057365
0.0780334363745
0.078034006237
0.0780342477079
0.0780343018653
0.0780342217648
0.0780338375749
0.0780332704177
0.0780329174285
0.0780327695249
0.0780327875447
0.0780329590102
0.0780334549473
0.0780343848327
0.0780358470162
0.0780379765066
0.0780405961638
0.0780428826373
0.0780447245156
0.0780461435441
0.0780471829372
0.0780478914855
0.0780483615234
0.0780484636477
0.0780483058582
0.0780478290955
0.078046910511
0.0780453730459
0.0780429546314
0.0780393965616
0.0780346077387
0.078028732686
0.0780220579662
0.078015532711
0.0780095169802
0.0780040834239
0.0779993206685
0.0779953064975
0.0779920936043
0.0779896986793
0.0779880891264
0.0779871706445
0.077986781987
0.0779867565734
0.077987065105
0.0779876411951
0.0779883668924
0.0779894771214
0.0779914535042
0.0779944973432
0.0779985807977
0.078003709886
0.0780097857164
0.0780165134408
0.0780236262104
0.0780305652183
0.0780372022012
0.078043511011
0.0780494358187
0.0780549149843
0.078059891868
0.0780643229906
0.0780681827786
0.0780714609377
0.0780741638636
0.0780763186417
0.0780779724866
0.0780791953413
0.0780800735608
0.0780807024776
0.0780811765128
0.0780815726626
0.0780819472711
0.0780823457383
0.0780828029988
0.0780833939504
0.0780842349441
0.078085459036
0.0780871738317
0.0780894342152
0.0780922621846
0.0780956846251
0.0780996819003
0.0781035659127
0.0781070859452
0.0781102151644
0.0781129335292
0.07811523217
0.0781171275301
0.0781186626905
0.078119900779
0.078120917454
0.0781217838978
0.078122554691
0.0781232792738
0.0781240166384
0.0781248409668
0.0781258861283
0.0781273314792
0.078129364536
0.0781321392529
0.0781357527584
0.0781402495931
0.0781456193864
0.0781508245517
0.0781553348115
0.0781590253028
0.0781617916141
0.0781636130607
0.0781645616252
0.0781647839394
0.078164170378
0.0781630161776
0.0781611506112
0.0781582355237
0.078154020659
0.0781485232229
0.0781420744556
0.0781350662937
0.0781275610689
0.0781194540208
0.0781116402185
0.0781044639995
0.0780980598999
0.0780925822576
0.0780881770581
0.0780849401998
0.0780828047944
0.0780815090724
0.0780813270205
0.0780820625925
0.078084057871
0.0780871880627
0.0780911054772
0.0780955680467
0.0781005078921
0.078105867111
0.0781115565304
0.0781174723778
0.0781235992974
0.0781301027722
0.0781366021202
0.0781422261727
0.0781467385748
0.0781500013548
0.0781519883788
0.0781527392061
0.0781517055716
0.0781489460503
0.078144451911
0.0781384189207
0.0781309727666
0.0781223994416
0.0781131455679
0.0781025487951
0.0780910478596
0.0780804310757
0.0780707370197
0.0780621852569
0.0780550604346
0.0780496343068
0.078046033528
0.0780441846258
0.0780437963467
0.078045116131
0.0780484649013
0.0780531633475
0.0780589696624
0.0780657342328
0.0780732823347
0.078081438827
0.0780901027537
0.0780992985824
0.078109179646
0.0781198294274
0.0781306195871
0.0781412754796
0.078151693587
0.0781617929038
0.0781714706704
0.0781806558973
0.0781890541186
0.0781957840425
0.0782011709276
0.0782053941405
0.0782086606724
0.0782111964905
0.0782132200119
0.0782149600481
0.0782166358421
0.0782185400296
0.078220786572
0.0782235353645
0.078226900913
0.0782309619872
0.0782357648367
0.0782413218854
0.0782476067564
0.0782545473091
0.0782620275207
0.0782699077394
0.0782780575018
0.0782863799657
0.0782946714794
0.0783026270399
0.0783101552656
0.0783171474201
0.0783235005692
0.0783291395603
0.0783340270299
0.0783381631787
0.0783415834028
0.0783443511363
0.0783465511685
0.0783482970651
0.078349751931
0.0783511267976
0.0783525952343
0.0783542776006
0.0783563453529
0.0783589535074
0.07836223408
0.0783662963315
0.0783712212623
0.0783770567814
0.0783838152146
0.0783914735694
0.0783999752732
0.0784092350188
0.0784191434551
0.0784295749473
0.0784403966676
0.078451480776
0.0784627156281
0.0784740135318
0.0784852097576
0.0784962162497
0.0785069885303
0.0785174846647
0.0785276721136
0.0785375289624
0.078547041515
0.0785562015851
0.0785650034151
0.078573441903
0.0785815104123
0.0785892000674
0.078596499168
0.0786033945309
0.078609872115
0.0786159192823
0.0786215272139
0.0786266933189
0.0786314245356
0.0786357411256
0.0786396792887
0.0786432928462
0.0786466534906
0.078649850845
0.0786529933011
0.078656238505
0.0786596938692
0.0786634913856
0.0786677617453
0.0786726329524
0.0786782221424
0.0786846257891
0.0786919125868
0.0787001155208
0.0787092233904
0.0787191774795
0.0787298737676
0.0787411750179
0.0787529253433
0.078764955177
0.0787771179093
0.0787892727752
0.0788011622175
0.0788126053324
0.0788234325739
0.078833511337
0.0788427449267
0.0788510732617
0.0788584690624
0.0788649379462
0.0788705175091
0.0788752756809
0.0788793075428
0.0788827309413
0.0788856810909
0.0788883049372
0.0788907583163
0.0788932138754
0.0788958364032
0.0788987321844
0.0789020075836
0.0789057499981
0.0789100230313
0.078914865093
0.0789202881297
0.0789262785441
0.0789327995667
0.0789397950503
0.0789471943795
0.0789549179926
0.078962883173
0.0789710095242
0.078979224231
0.0789874688916
0.0789956911479
0.079003850849
0.0790119439364
0.079019978078
0.0790279776664
0.079035984932
0.0790440486494
0.0790522149328
0.0790605330272
0.0790690498641
0.0790778083868
0.079086842824
0.0790961762287
0.0791058190998
0.0791157678828
0.079126004185
0.0791364945625
0.0791471922099
0.0791580391573
0.0791689684157
0.0791799168407
0.079190793822
0.0792015263826
0.0792120567371
0.0792223363627
0.0792323284454
0.0792420113751
0.0792513787212
0.0792604381319
0.079269208847
0.0792777180542
0.079285996355
0.0792940726711
0.0793019692452
0.0793096972655
0.0793172537759
0.079324620215
0.0793317629763
0.0793386361252
0.0793451861111
0.0793513583199
0.0793571046761
0.0793623914244
0.0793672071826
0.0793715691764
0.0793755279709
0.0793791692388
0.0793826126993
0.0793860133737
0.079389590183
0.0793934895172
0.0793978850035
0.0794029359748
0.079408778966
0.0794155153373
0.0794232013157
0.0794318428552
0.0794413944034
0.0794517619038
0.0794628101411
0.0794743733356
0.0794862689986
0.0794983232805
0.0795105363302
0.0795227808918
0.0795349146444
0.0795467661361
0.0795580998897
0.0795688549488
0.0795790462883
0.0795887589866
0.079598130024
0.0796073281922
0.07961655735
0.0796260028132
0.0796357689455
0.0796459310529
0.0796565133358
0.0796674803931
0.079678739416
0.0796901472295
0.0797015461713
0.0797126676485
0.0797233149366
0.0797332913535
0.0797424338655
0.0797506224342
0.0797577945305
0.0797639522995
0.0797691646251
0.0797735646539
0.0797773427795
0.0797807343979
0.0797840059161
0.0797875217554
0.0797914928599
0.0797961471988
0.07980166742
0.0798081891677
0.0798157849766
0.0798244577292
0.0798341437961
0.0798447164179
0.0798559992302
0.079867780127
0.0798798297814
0.0798920561121
0.07990455189
0.0799174317932
0.079930830949
0.0799449079472
0.0799597610961
0.0799744885107
0.0799886790777