/*--------------------------------*- C++ -*----------------------------------*\
  =========                 |
  \\      /  F ield         | OpenFOAM: The Open Source CFD Toolbox
   \\    /   O peration     | Website:  https://openfoam.org
    \\  /    A nd           | Version:  6
     \\/     M anipulation  |
\*---------------------------------------------------------------------------*/
FoamFile
{
    version     2.0;
    format      ascii;
    class       volScalarField;
    location    "0.0005";
    object      T;
}
// * * * * * * * * * * * * * * * * * * * * * * * * * * * * * * * * * * * * * //

dimensions      [0 0 0 1 0 0 0];

internalField   nonuniform List<scalar> 
32000
(
800.044830218
800.049242688
800.04835386
800.048129638
800.047399392
800.047287558
800.046653936
800.046538833
800.046031523
800.045930934
800.045411569
800.045013438
800.044059272
800.042793432
800.040696539
800.037962149
800.034226851
800.029694759
800.024214521
800.017843839
800.01062914
800.002400093
799.993430073
799.983431529
799.972699689
799.960879275
799.948286531
799.934667124
799.920375229
799.905010202
799.888926805
799.871894806
799.854136165
799.83556857
799.81622686
799.796283322
799.775620547
799.754553438
799.733710756
799.714554776
799.696755635
799.680526565
799.665556507
799.651961437
799.639502862
799.628166763
799.617599517
799.607731962
799.598180703
799.58862605
799.578421003
799.567417143
799.555267669
799.541979884
799.527289549
799.511335493
799.493873273
799.474999746
799.454472847
799.432407873
799.408537306
799.382862252
799.355178375
799.326005294
799.294732407
799.261099025
799.225882813
799.188174817
799.14852817
799.105945845
799.06178958
799.013920204
798.964761625
798.911936038
798.85703501
798.798881899
798.738986679
798.675986867
798.610738592
798.543279715
798.474136819
798.402775773
798.330251486
798.256717841
798.18199448
798.10728865
798.032375043
797.957866638
797.884343887
797.812238857
797.740966137
797.670206491
797.600115685
797.53078746
797.459503462
797.385189538
797.311186937
797.229569213
797.139553029
797.049649174
796.941457867
796.821011978
796.697994947
796.536843865
796.362243043
796.168046698
795.897964948
795.625416538
795.25712985
794.794505813
794.28822967
793.550886692
792.765731629
791.693330262
790.465278261
788.97662246
787.351899792
786.039745555
785.072146226
784.366173594
783.852888209
783.478568731
783.202918299
782.9969737
782.839771635
782.716616416
782.617057324
782.533434187
782.460322752
782.394035911
782.331670587
782.271697345
782.212827431
782.154242883
782.095642463
782.036802686
781.977481422
781.917507282
781.856771802
781.795187485
781.732593573
781.669028991
781.604249862
781.538306316
781.471020962
781.402290957
781.331942882
781.259985145
781.186021394
781.110023758
781.031866622
780.95120699
780.868276706
780.782647135
780.694620018
780.603927112
780.510691081
780.414944205
780.316539745
780.215712508
780.112008519
780.005462128
779.895771064
779.782698928
779.666275624
779.546370148
779.423101243
779.296459484
779.166750351
779.03357023
778.897349869
778.757398018
778.613608865
778.468822386
778.331781311
778.203398577
778.083645252
777.97186706
777.868249424
777.772256512
777.682694302
777.59897513
777.520079969
777.444843999
777.372829997
777.303080705
777.23530959
777.170024249
777.106955901
777.045900096
776.987182509
776.930892077
776.877410247
776.827243315
776.780282043
776.736738011
776.695873146
776.65826545
776.622174089
776.58779256
776.555151647
776.523188741
776.49243973
776.463335792
776.435552382
776.409341507
776.384882269
776.36170721
776.339643222
776.319118693
776.300342974
776.282968205
776.266692593
776.251584636
776.238081385
776.226543968
776.21705998
776.209655973
776.20400599
776.199905216
776.197302413
776.195457257
776.195481831
776.196938805
776.199259181
776.202057472
776.205052423
776.208092203
776.211032382
776.213797142
776.216350515
776.218655924
776.22069616
776.222643232
776.224619125
776.226712319
776.229046143
776.231778715
776.235095693
776.239177783
776.244171132
776.250172762
776.257228105
776.265335466
776.274451553
776.284502295
776.29540255
776.307043789
776.319444118
776.332566178
776.346416015
776.361005548
776.376399791
776.392722986
776.410115958
776.428714285
776.447395721
776.465006315
776.481421388
776.496541693
776.510260037
776.522623103
776.53372197
776.543673719
776.552635451
776.560846077
776.568481701
776.575774001
776.582882688
776.589945945
776.597086397
776.604322777
776.611658951
776.619069659
776.626444662
776.633771476
776.64092028
776.647850786
776.654445924
776.660796064
776.666844465
776.672690217
776.678425693
776.684045608
776.689598142
776.69510121
776.700591608
776.70610241
776.711667954
776.717334438
776.723175333
776.729275982
776.735724252
776.74260997
776.750051639
776.75823671
776.7674041
776.777764923
776.789403324
776.802427256
776.817226456
776.834089347
776.853123914
776.874455998
776.89870624
776.926138592
776.957146355
776.991495485
777.024847185
777.056796057
777.087357637
777.11651837
777.144393718
777.171089188
777.196583976
777.220778795
777.243565132
777.264857731
777.284594597
777.302740314
777.319293459
777.334297002
777.347844743
777.360078848
777.371173483
777.381310033
777.390659112
777.399367355
777.407555621
777.41531894
777.422739713
777.429882783
777.436803915
777.443553317
777.450155441
777.45667638
777.463174852
777.469699432
777.476367398
777.48327533
777.490537263
777.498270668
777.506622361
777.515784437
777.525940213
777.537190204
777.549608576
777.563292115
777.578205874
777.594279188
777.611473933
777.629548071
777.647943289
777.666147751
777.684224981
777.702249352
777.720276508
777.73841135
777.756821594
777.77569999
777.795308477
777.81597424
777.838049398
777.861896342
777.887901944
777.916480042
777.948050246
777.983044333
778.021915775
778.065138072
778.113013397
778.161359145
778.207206889
778.250547954
778.291396914
778.329768064
778.365686502
778.39919307
778.430346436
778.459225888
778.485930733
778.510580428
778.533314481
778.554288635
778.573670357
778.591636139
778.608364098
778.62402891
778.638798621
778.65282914
778.666263683
778.679233352
778.691859841
778.704252825
778.716510112
778.728708087
778.740898623
778.753128024
778.765427901
778.777820631
778.790387745
778.803263963
778.816601663
778.830566587
778.845360282
778.8612474
778.87856951
778.897752605
778.919273407
778.943602694
778.971173778
779.002277991
779.033701437
779.063094427
779.090529134
779.116133522
779.140067073
779.162510121
779.183652371
779.203691494
779.222825563
779.241246471
779.259131937
779.276640129
779.293906038
779.311046979
779.328177058
779.345424011
779.362902733
779.380725469
779.398988449
779.417782688
779.437282724
779.457807198
779.479759681
779.503522974
779.529555635
779.558527992
779.591219095
779.628430991
779.671095844
779.717875649
779.762264487
779.803247834
779.84079251
779.874970327
779.90592991
779.933884469
779.959090441
779.981837353
780.002430332
780.021178482
780.038382988
780.054323692
780.069258769
780.083411839
780.096974161
780.110099206
780.122914773
780.135509559
780.147952912
780.160361306
780.17280271
780.185378187
780.198268086
780.211761282
780.226244181
780.242195677
780.260190713
780.280952008
780.305315734
780.334115257
780.368191433
780.408496795
780.455047059
780.500080439
780.54117162
780.578485231
780.612238739
780.642707587
780.670207456
780.695076794
780.717669559
780.73833536
780.757416083
780.775229082
780.792064123
780.808173285
780.823769767
780.839024182
780.854076047
780.86902488
780.883936307
780.898851185
780.913783847
780.928752394
780.94384066
780.95919006
780.974998502
780.991533166
781.009129082
781.028225892
781.049328593
781.073020141
781.099944261
781.130782065
781.166252601
781.207153273
781.254378738
781.308877389
781.367578558
781.422716087
781.47365426
781.520493444
781.563398227
781.602578947
781.638279857
781.670792539
781.700417168
781.727471949
781.752277466
781.775154251
781.796404733
781.816317286
781.835151244
781.853146173
781.870503637
781.887405212
781.904002212
781.920416573
781.936733754
781.953015586
781.969305677
781.985633935
782.002061706
782.018710691
782.035772267
782.053494314
782.072189245
782.092225834
782.114042525
782.138130176
782.16502019
782.19527702
782.22947243
782.268156343
782.311809552
782.360485759
782.408789706
782.454360378
782.497411214
782.538174294
782.576885601
782.613784423
782.649109273
782.683089541
782.715942684
782.747872881
782.779067499
782.809696039
782.839907338
782.86983136
782.899573371
782.929219194
782.958825802
782.98843395
783.018075579
783.047794321
783.077675258
783.107854973
783.138519037
783.169901013
783.202291734
783.236037435
783.271535949
783.309241473
783.349307885
783.388895428
783.426948249
783.463441622
783.498412488
783.531940882
783.56414148
783.595150668
783.625124136
783.654222229
783.682609464
783.710435519
783.737841269
783.764948547
783.791857626
783.818649328
783.845378826
783.87208395
783.898811761
783.92563696
783.952708886
783.980237412
784.008506668
784.037893439
784.068902574
784.102163462
784.138416286
784.178550645
784.223665873
784.273145614
784.320436976
784.364130038
784.404067403
784.440212288
784.472630399
784.501475258
784.52697084
784.549394934
784.569048619
784.586260082
784.601363417
784.614688744
784.626554802
784.637258943
784.647069391
784.656225784
784.664936058
784.673371096
784.681657208
784.689885159
784.698113231
784.706374911
784.714753136
784.723411946
784.732602514
784.74266172
784.754018585
784.767199951
784.782834862
784.801657867
784.824508294
784.852328394
784.886158456
784.927132991
784.976480236
785.035531122
785.105637546
785.179587773
785.24748396
785.309006053
785.364268329
785.413478933
785.456924131
785.494952974
785.527962662
785.55638631
785.580678341
785.601303061
785.618721726
785.633383278
785.645717998
785.656126429
785.664978538
785.672609337
785.679309714
785.685333833
785.69088793
785.696145483
785.701233295
785.706247496
785.711243843
785.716269442
785.721432051
785.726906
785.732933128
785.739843305
785.748056538
785.758063356
785.770406084
785.785674378
785.804499409
785.827532204
785.855420105
785.888794484
785.928281346
785.974509939
786.028130199
786.08986237
786.160580411
786.235358232
786.305507785
786.370484075
786.430238764
786.484769073
786.534125606
786.578413607
786.617801893
786.652521619
786.682857508
786.709137348
786.731721347
786.750992437
786.76734489
786.781172383
786.792862853
786.802783025
786.811276713
786.818654841
786.825195531
786.831135742
786.836673747
786.841966641
786.847132741
786.852251575
786.857368924
786.862556429
786.867960331
786.873802601
786.880397618
786.888154255
786.897563649
786.90919337
786.923682504
786.941718483
786.964007015
786.991244612
787.024078172
787.063033598
787.10783037
787.151688743
787.192443987
787.230459842
787.266118681
787.299803734
787.331889133
787.362726713
787.392638459
787.421905575
787.450764917
787.479401747
787.507948133
787.536480915
787.565052561
787.59381539
787.623054257
787.653208967
787.684906451
787.719003627
787.756000075
787.792077056
787.825652037
787.856348727
787.883918518
787.908235482
787.929284413
787.947146497
787.961982883
787.974019028
787.983526139
787.990806687
787.996176669
787.99995541
788.002451727
788.003960159
788.004758114
788.005088217
788.005070247
788.004797808
788.003908055
788.002084409
787.999867868
787.998207716
787.997106977
787.996477332
787.996199911
787.99615736
787.9964151
787.997140678
787.99873921
788.001654837
788.006392819
788.013512515
788.02360127
788.037245311
788.055000519
788.077367197
788.104768664
788.137530263
788.175860058
788.219840305
788.269443253
788.324611458
788.382715565
788.438536686
788.491815631
788.542613698
788.590890082
788.636541306
788.679436982
788.719448872
788.756472714
788.790444152
788.821348623
788.849225431
788.87416768
788.896317715
788.91586155
788.933019111
788.948036281
788.961173136
788.972696889
788.982870126
788.991946351
789.000159701
789.007723007
789.014821627
789.02161178
789.028218869
789.034735597
789.041223661
789.047714986
789.05425175
789.060938633
789.067944249
789.075502375
789.083910332
789.093518834
789.104466553
789.115041922
789.124637636
789.133221086
789.140815004
789.147485268
789.15332767
789.158458092
789.16300085
789.16708166
789.17081878
789.174318527
789.177669095
789.180940606
789.184181202
789.187418314
789.190678364
789.194030664
789.197594609
789.201543741
789.206108944
789.211579848
789.218303551
789.226679915
789.237155848
789.25021527
789.266367332
789.286133276
789.310034017
789.338581699
789.372278087
789.411623609
789.457141667
789.509423694
789.569202626
789.637364574
789.708224125
789.774342262
789.835316611
789.891014645
789.941377037
789.986424949
790.026258221
790.061051754
790.091048262
790.11654773
790.137896353
790.155469123
790.169662806
790.180878717
790.189519021
790.195971894
790.200610816
790.203784004
790.205811147
790.206988284
790.207586655
790.207829551
790.207848598
790.207408795
790.206126715
790.203720539
790.201124675
790.199178868
790.197837041
790.197017424
790.196617937
790.196525636
790.196595653
790.196846934
790.197445637
790.198672528
790.200806847
790.204135214
790.208947936
790.215539865
790.224213713
790.235271495
790.248998638
790.265658696
790.285509208
790.308823787
790.335898091
790.367045572
790.402608476
790.442987089
790.488669278
790.540271866
790.598626709
790.66468926
790.731687912
790.793725256
790.850314357
790.901136259
790.946026182
790.984974078
791.018115013
791.045712943
791.068139424
791.08585223
791.09937128
791.109258286
791.11609467
791.12046614
791.12294997
791.124112599
791.124446401
791.124272095
791.122988882
791.119614447
791.113199465
791.10301356
791.091975827
791.083107387
791.076354137
791.07151977
791.06833636
791.06648546
791.06562031
791.06536879
791.065550732
791.066565959
791.06918049
791.074269648
791.082793691
791.09575677
791.114213985
791.139278798
791.172111368
791.213902137
791.26584679
791.328222169
791.389179532
791.443900494
791.492477575
791.535112563
791.572098345
791.603799597
791.630631732
791.653040585
791.671485109
791.686423154
791.698302904
791.707555478
791.714592817
791.719802095
791.72354548
791.726151501
791.727914028
791.729086803
791.729876912
791.730452386
791.730925698
791.731372885
791.73183133
791.732390684
791.733223991
791.73458596
791.736804281
791.740264957
791.745405943
791.752685901
791.762629618
791.77584099
791.793018237
791.814995297
791.842704417
791.877122511
791.919179345
791.969674308
792.028979383
792.088961415
792.144114429
792.194539758
792.240322948
792.281553089
792.318358229
792.350923636
792.379476048
792.404284065
792.425669911
792.443979129
792.459583751
792.472869624
792.484219009
792.494004158
792.502576703
792.51025444
792.51731955
792.524001528
792.530485182
792.536891246
792.543295403
792.549767482
792.556493154
792.563783404
792.572084725
792.581981911
792.594205083
792.609633783
792.629302278
792.654408849
792.684879518
792.71345655
792.738163707
792.758975297
792.776024828
792.789550248
792.799857544
792.807303007
792.812296024
792.815297325
792.816826776
792.817442113
792.817507815
792.816342791
792.812883007
792.806219154
792.795575917
792.780190587
792.762011496
792.746280107
792.733434272
792.723314509
792.715676171
792.710245336
792.706739474
792.704856865
792.704232012
792.704573436
792.705664053
792.707952539
792.712056884
792.718553951
792.728069609
792.741469153
792.759850531
792.784320905
792.815652226
792.854052679
792.899315966
792.951326323
793.010495422
793.076223598
793.140005843
793.199711935
793.255297749
793.306623999
793.35352196
793.395862663
793.43359858
793.466782823
793.495571087
793.52021024
793.541021021
793.558373598
793.572664514
793.584294357
793.593649635
793.601113894
793.607106619
793.612086554
793.616325574
793.619611945
793.622230732
793.624387048
793.626325612
793.628138245
793.629855671
793.631586118
793.633251152
793.635220347
793.637906978
793.641326297
793.646549519
793.654191251
793.665018902
793.679704254
793.698780898
793.717751425
793.733784389
793.746888309
793.757206108
793.764963639
793.77042733
793.773914802
793.77583222
793.776644388
793.776625338
793.775988112
793.774931835
793.772653103
793.768208359
793.761119491
793.751643839
793.743127468
793.736491339
793.731633124
793.728412046
793.726602572
793.725902533
793.725957709
793.726720987
793.727961149
793.730304524
793.734565144
793.741453216
793.751448196
793.765122282
793.783493016
793.807812773
793.838960639
793.877247099
793.92277022
793.97589827
794.03748684
794.100611177
794.158440981
794.210639069
794.257018545
794.297471502
794.331980892
794.360638816
794.38366635
794.401439043
794.414503982
794.423553481
794.429348396
794.43261485
794.433992102
794.433527386
794.431541005
794.428175085
794.422503944
794.413092874
794.397975651
794.375615369
794.352370282
794.333118025
794.31765026
794.305687418
794.296876792
794.29077377
794.286821961
794.284351057
794.283115079
794.282994788
794.283940102
794.287408378
794.294876863
794.307487861
794.326524872
794.35338889
794.389403433
794.435991113
794.492036193
794.544776932
794.591291308
794.631721543
794.666309048
794.695388149
794.719378794
794.738765433
794.7540829
794.765884902
794.774723363
794.781120777
794.785556588
794.788463601
794.790228978
794.791204199
794.791692644
794.79188942
794.791974305
794.792074436
794.792291212
794.792752639
794.793865037
794.796066832
794.79978066
794.805647955
794.814590708
794.827697065
794.84599952
794.865156097
794.881171799
794.893998211
794.903827566
794.910984717
794.91587803
794.918957082
794.920692907
794.921596591
794.92180271
794.920928429
794.918169424
794.912754373
794.905225551
794.899077249
794.894793945
794.892194271
794.890984973
794.890771586
794.891526063
794.892928073
794.895494722
794.900201454
794.908313005
794.921065349
794.939618247
794.965429995
795.00041834
795.046389565
795.103890585
795.160456412
795.209937231
795.252254648
795.287517629
795.316022259
795.338228905
795.354747847
795.366326792
795.373812267
795.378097555
795.380057686
795.380328433
795.379241091
795.376663862
795.371094353
795.360736159
795.343660816
795.318779392
795.294326081
795.27439748
795.25874996
795.247015984
795.238720282
795.233310209
795.230184999
795.228720698
795.228252964
795.228623091
795.230507195
795.235271813
795.243986588
795.257712916
795.277314766
795.303289861
795.335812169
795.374651605
795.419078
795.468007603
795.520402544
795.575626113
795.630789646
795.684092849
795.734902124
795.782422147
795.82587861
795.864652131
795.89834461
795.926798389
795.95007236
795.96842589
795.982280125
795.992196217
795.998834436
796.00291559
796.005172369
796.006368088
796.006502532
796.005061914
796.000549921
795.991313058
795.975622557
795.951947126
795.918914445
795.875055329
795.825572046
795.781595568
795.743837214
795.712120108
795.686141616
795.665489438
795.649670984
795.638134647
795.63027068
795.62541767
795.622869575
795.621917309
795.621771674
795.622643413
795.625647592
795.632309206
795.644020203
795.661972852
795.687269588
795.721094498
795.764562443
795.816428563
795.865741259
795.910246319
795.950214809
795.98581647
796.017186311
796.044482157
796.067911778
796.087743684
796.104310305
796.117993585
796.129209897
796.138386698
796.145945275
796.152278425
796.157739993
796.162635285
796.167210405
796.171648912
796.176067212
796.180541795
796.185178719
796.190212386
796.195975229
796.20284141
796.211202939
796.221445112
796.233806005
796.246766282
796.258706573
796.269779888
796.280183558
796.290099548
796.299677468
796.309026468
796.31823049
796.327408144
796.336643197
796.346122113
796.356183027
796.367264315
796.379868716
796.394606711
796.41220968
796.433448612
796.459137285
796.490192565
796.527655383
796.572720905
796.620179869
796.663029282
796.700638079
796.732734246
796.759259139
796.780364154
796.796401084
796.807915978
796.815637632
796.820436876
796.823268138
796.824650485
796.824295342
796.821383329
796.813528308
796.798442397
796.774335996
796.741131717
796.71000308
796.684598059
796.664729166
796.649883193
796.63936553
796.632391339
796.628160677
796.625930969
796.624876428
796.62528399
796.627410156
796.632524485
796.642075347
796.657577541
796.679933202
796.709036221
796.744007546
796.783741839
796.827124735
796.872254928
796.916922167
796.961583216
797.007171547
797.055768584
797.105878245
797.152826677
797.195346616
797.232726658
797.264648893
797.291124922
797.312422758
797.32897546
797.341312151
797.350010442
797.355682787
797.358979043
797.360592786
797.361238289
797.361156551
797.359520395
797.356938064
797.355477977
797.355074716
797.355502396
797.35674487
797.359666403
797.364831002
797.372745647
797.384106931
797.397999676
797.410171595
797.420048733
797.427744457
797.433482129
797.437513841
797.440327909
797.441215455
797.440746203
797.438636451
797.434242247
797.426651508
797.41451577
797.396503225
797.372140262
797.342163234
797.308041137
797.274673469
797.243931288
797.216199254
797.191938047
797.171548766
797.155303214
797.1432853
797.135321045
797.130926949
797.129288949
797.12949034
797.131443503
797.134779016
797.138878935
797.144957498
797.155510975
797.171579939
797.193016071
797.219875798
797.251633599
797.286761835
797.323877538
797.360091599
797.394739605
797.427685019
797.458644005
797.487305933
797.513374339
797.536623044
797.556924082
797.574223811
797.588551322
797.600043777
797.608944449
797.615616725
797.620509232
797.624116868
797.626927845
797.629341835
797.631644842
797.634073905
797.636811352
797.640239226
797.644954441
797.651642321
797.660860253
797.672895737
797.687867566
797.705920421
797.726952216
797.747403272
797.76596197
797.782471326
797.7968323
797.809031785
797.819176776
797.8274822
797.834260662
797.839893416
797.844740506
797.849085903
797.853189823
797.85736092
797.861985089
797.867754005
797.875593903
797.886472261
797.901182244
797.920220055
797.943798487
797.971847655
797.999058085
798.022720311
798.042147222
798.056813949
798.066602802
798.071904867
798.073417975
798.070612363
798.065018885
798.055746686
798.041057634
798.019670723
797.991677847
797.958773725
797.922955339
797.884538733
797.843018346
797.803050878
797.766389561
797.733705427
797.705801239
797.683436514
797.66708967
797.656400689
797.650048007
797.6494222
797.653584793
797.664291481
797.680853928
797.701452378
797.72485385
797.750736987
797.778796203
797.80855533
797.839480352
797.871494092
797.905451229
797.939393404
797.968815783
797.992478565
798.009670752
798.020300444
798.024531071
798.019541134
798.005661905
797.982825351
797.952038817
797.913959921
797.870057866
797.822632922
797.768265405
797.709223036
797.654742687
797.605022432
797.561207132
797.524769692
797.497104012
797.478877977
797.469731499
797.468050178
797.475242556
797.492916524
797.517563065
797.547934919
797.583254941
797.622621035
797.665130089
797.710259924
797.758133943
797.809541322
797.864914983
797.921013405
797.976418487
798.030592223
798.083114079
798.133454515
798.181248611
798.224977044
798.260092108
798.28827412
798.310449576
798.32768665
798.341151368
798.351971483
798.361328748
798.370354952
798.380560017
798.392531266
798.40709315
798.42483633
798.446167159
798.471323995
798.500370551
798.533170366
798.569350972
798.608313501
798.649337267
798.691749011
798.735049201
798.778187004
798.819589436
798.85878529
798.895214058
798.92834488
798.957790478
798.983358544
799.005050498
799.023049488
799.037683107
799.049388916
799.058752946
799.066616507
799.074067789
799.082001768
799.09103893
799.102063313
799.115874055
799.133151495
799.154458821
799.18021339
799.210661663
799.24586657
799.285709509
799.32989773
799.377991481
799.429425959
799.483553054
799.539687788
799.597171168
799.655427894
799.714005907
799.772056583
799.829126596
799.884987096
799.939422383
799.992265466
800.043403446
800.092766437
800.140313033
800.18601347
800.229842272
800.271765492
800.311738051
800.349699422
800.385582666
800.419315412
800.450832567
800.480089113
800.507071691
800.531815809
800.554426144
800.575088965
800.594081501
800.611772889
800.628623955
800.645192466
800.66228976
800.680467397
800.700403792
800.72277128
800.74822684
800.777373083
800.810704523
800.848573261
800.891149459
800.938374724
800.989947139
801.045330749
801.103819297
801.164610766
801.226833154
801.28973366
801.352588275
801.414074066
801.47326206
801.529284112
801.58145855
801.629288479
801.672466564
801.710852687
801.744476633
801.773531924
801.79836793
801.819473303
801.837453358
801.853002391
801.866875105
801.87987164
801.892878888
801.906743306
801.922010967
801.939228523
801.958845029
801.981186822
802.006450557
802.034697332
802.065857248
802.09974136
802.13606115
802.174453836
802.214510661
802.255806706
802.297929077
802.340504231
802.383232961
802.425845939
802.468136505
802.510085043
802.55172895
802.593194917
802.634698815
802.676488671
802.718804351
802.761898462
802.806008893
802.851356599
802.898116474
802.946405545
802.996277535
803.047714651
803.100622904
803.154829755
803.210094348
803.266118929
803.322560121
803.379093572
803.43525491
803.490670496
803.545044568
803.598128443
803.649733
803.699747711
803.748140225
803.79495035
803.840277141
803.884260353
803.927057317
803.968816739
804.009653059
804.04962394
804.088714556
804.126830068
804.163798486
804.199384644
804.233314265
804.265307833
804.295119577
804.322576563
804.347620999
804.370341374
804.390997087
804.410026886
804.428043885
804.445841492
804.464540411
804.484889982
804.507778677
804.534021913
804.564317958
804.599185079
804.638910256
804.683523071
804.732789657
804.786227766
804.843144769
804.902691909
804.963935115
805.025985264
805.08884298
805.151856395
805.214298189
805.275291723
805.33363347
805.38901301
805.441507062
805.491551501
805.539846661
805.587254978
805.63481874
805.683485226
805.733787615
805.786110333
805.840576325
805.897004116
805.954920501
806.013593341
806.072215194
806.129415067
806.184189491
806.235535464
806.282620616
806.324831508
806.361848819
806.393683421
806.420686692
806.443538085
806.463209591
806.480902876
806.497978946
806.516298522
806.536938885
806.561063389
806.589604707
806.623256656
806.662389695
806.707016175
806.756812358
806.811129139
806.869066514
806.92954211
806.99138531
807.054126399
807.118238869
807.184307832
807.253019348
807.325182343
807.401295697
807.476761131
807.549486449
807.619235981
807.685819895
807.749299657
807.806502508
807.853281138
807.889283741
807.915340682
807.933171179
807.945058153
807.953537556
807.961271355
807.97144793
807.985637543
808.005453014
808.031990164
808.065840112
808.107039947
808.155074815
808.208943097
808.267256278
808.328359578
808.390843764
808.453985494
808.516213528
808.575095923
808.629146854
808.677499768
808.719948761
808.756808578
808.788863933
808.817272034
808.84344572
808.868936501
808.895782
808.925069953
808.957913471
808.995103176
809.037118163
809.084069606
809.135700041
809.191420005
809.250370786
809.311512871
809.373753166
809.436958741
809.501618456
809.568224318
809.634802563
809.699970459
809.763566955
809.824669659
809.880143553
809.929168657
809.971567191
810.007820057
810.038806894
810.065671035
810.089720423
810.11234708
810.13507985
810.159414579
810.186230505
810.216381391
810.250519286
810.289049212
810.332126732
810.37965386
810.431302712
810.48655196
810.544735909
810.605102231
810.666872944
810.729316623
810.792328316
810.856145911
810.921049506
810.98733793
811.055344744
811.124752327
811.193413351
811.260946387
811.327353692
811.392678671
811.456987394
811.520365299
811.582899939
811.643610444
811.702464842
811.759802942
811.816143682
811.871958962
811.927583496
811.983153438
812.038606017
812.093704103
812.148076917
812.201279517
812.252856922
812.302404732
812.349624251
812.394364866
812.436650897
812.476692134
812.514876909
812.551750786
812.587977099
812.624445354
812.661939572
812.7010765
812.742427522
812.786459759
812.833478314
812.883610908
812.93679952
812.992809961
813.051256102
813.111636246
813.173377117
813.235878673
813.298791592
813.362276619
813.426543736
813.491838831
813.558437985
813.626649264
813.696825829
813.769377703
813.844781225
813.923603242
814.005688817
814.086647926
814.165277217
814.241485813
814.315225727
814.38648679
814.455291062
814.52170548
814.585874752
814.646897561
814.701681376
814.750137574
814.792845143
814.830951976
814.865815849
814.898822772
814.931291731
814.964777377
814.999992277
815.03764512
815.078217151
815.122008594
815.169126786
815.219504551
815.272926731
815.329056552
815.38747398
815.44770511
815.509256523
815.571663842
815.63449851
815.69758343
815.760991603
815.824796365
815.88907169
815.953880139
816.019274833
816.085296821
816.151976471
816.219332542
816.287370467
816.356084858
816.425457989
816.495464377
816.566069316
816.637234086
816.708910385
816.781048989
816.853598172
816.926510331
816.999746286
817.073277898
817.147093655
817.221204051
817.295648501
817.370501901
817.445880593
817.521945479
817.59890561
817.677027805
817.756646972
817.838124999
817.921869473
818.008369919
818.098174452
818.191886587
818.290161783
818.39371154
818.503304478
818.619766153
818.743987836
818.876915997
819.019556425
819.172976453
819.33825121
819.515887059
819.693840148
819.864956571
820.029532665
820.187922894
820.340500092
820.487642071
820.629718773
820.767079741
820.900051196
821.028925701
821.153964504
821.275389673
821.393391672
821.508127395
821.619721842
821.728273706
821.833857024
821.936531399
822.036345702
822.133335002
822.227534113
822.318973073
822.407682139
822.493704947
822.577076895
822.657863012
822.736113734
822.811921362
822.885353243
822.956524869
823.025537449
823.092514964
823.157583969
823.220737881
823.279479957
823.333388608
823.382761323
823.428364608
823.471051179
823.511655294
823.550918511
823.589455799
823.627739876
823.66622898
823.705108681
823.744484218
823.784389065
823.824815983
823.865722199
823.907047252
823.948742783
823.99078287
824.033133405
824.075773996
824.11871253
824.161983766
824.205641604
824.249748336
824.294362498
824.339489588