/*--------------------------------*- C++ -*----------------------------------*\
  =========                 |
  \\      /  F ield         | OpenFOAM: The Open Source CFD Toolbox
   \\    /   O peration     | Website:  https://openfoam.org
    \\  /    A nd           | Version:  6
     \\/     M anipulation  |
\*---------------------------------------------------------------------------*/
FoamFile
{
    version     2.0;
    format      ascii;
    class       volVectorField;
    location    "0.0005";
    object      U;
}
// * * * * * * * * * * * * * * * * * * * * * * * * * * * * * * * * * * * * * //

dimensions      [0 1 -1 0 0 0 0];

internalField   nonuniform List<vector> 
32000
(
(-0.0611332239241 -4.09641872811e-13 0)
(-0.182834940856 1.36012507967e-12 0)
(-0.304911787784 -1.1643780919e-12 0)
(-0.426965576558 9.87148387109e-13 0)
(-0.549412164052 -7.74382489589e-13 0)
(-0.672162644563 -1.515641903e-13 0)
(-0.795423678713 -1.92360860602e-12 0)
(-0.919251303205 -1.04419464607e-12 0)
(-1.04376817084 -6.65972113634e-13 0)
(-1.16899059969 3.60856829031e-13 0)
(-1.29498518446 -3.59717716906e-13 0)
(-1.42151944699 -4.85719201355e-13 0)
(-1.54871696206 -8.94621085807e-13 0)
(-1.6761062367 -2.34317904965e-13 0)
(-1.804005248 -2.13432661939e-13 0)
(-1.93187290511 1.90634754898e-13 0)
(-2.06021876541 -2.73640018457e-13 0)
(-2.18848844558 -2.45841268745e-13 0)
(-2.31739880623 -5.85399806409e-13 0)
(-2.44640837029 -6.33406884246e-14 0)
(-2.5762892297 -2.95574671424e-13 0)
(-2.70630750624 1.36187442735e-13 0)
(-2.83738521508 1.04142633808e-13 0)
(-2.96876733442 4.13290754877e-13 0)
(-3.10131388833 -1.70997202468e-14 0)
(-3.23427686579 1.31830104587e-13 0)
(-3.3684689652 -2.00571017237e-14 0)
(-3.5032991388 4.33236450502e-14 0)
(-3.63956011455 -2.5554806397e-13 0)
(-3.77646427025 -6.53883292802e-14 0)
(-3.91478756739 -2.17922196985e-13 0)
(-4.05396515271 -7.56582739454e-14 0)
(-4.19457110982 -6.03919093562e-14 0)
(-4.33615596622 7.65957231842e-14 0)
(-4.47900355602 -3.04398418395e-14 0)
(-4.6229806543 -2.12790800565e-13 0)
(-4.76813464196 -3.64945152795e-13 0)
(-4.91453387713 -3.73180876543e-13 0)
(-5.06095974951 -4.51615761293e-13 0)
(-5.20604780754 -4.08075743285e-13 0)
(-5.35023340906 -2.93223839705e-13 0)
(-5.49378113074 -4.35355775077e-13 0)
(-5.63711770956 -4.09602278239e-13 0)
(-5.78056836327 -3.76012698887e-13 0)
(-5.9242942607 -4.77092349786e-13 0)
(-6.06837976813 -6.44944952642e-13 0)
(-6.21283878976 -7.67709449081e-13 0)
(-6.35762770388 -8.33929980623e-13 0)
(-6.50259502809 -1.15758772198e-12 0)
(-6.64753680474 -1.06710101528e-12 0)
(-6.7917793547 -1.11107129368e-12 0)
(-6.93502717864 -8.50954173975e-13 0)
(-7.07721176167 -8.38465094412e-13 0)
(-7.21827422198 -6.35910817228e-13 0)
(-7.35824764465 -4.669139998e-13 0)
(-7.49726371117 -4.08009951041e-13 0)
(-7.63543412749 -4.09550427531e-13 0)
(-7.77284967909 -3.73593335239e-13 0)
(-7.90965430075 -5.76824406265e-13 0)
(-8.04603260422 -5.78976652762e-13 0)
(-8.18216110012 -7.45818905582e-13 0)
(-8.3181958991 -7.84133453059e-13 0)
(-8.45437861461 -8.17818215788e-13 0)
(-8.59150508808 -7.7513180674e-13 0)
(-8.72932112976 -7.01311351283e-13 0)
(-8.86769593886 -5.82152714468e-13 0)
(-9.00823970143 -4.7388673107e-13 0)
(-9.14998210224 -3.54793986323e-13 0)
(-9.29424723291 -2.74307450633e-13 0)
(-9.43993942393 -2.39463844501e-13 0)
(-9.58947364035 -2.37242883648e-13 0)
(-9.74014441585 -2.81985869682e-13 0)
(-9.89568428608 -3.57675458531e-13 0)
(-10.0529065617 -4.14930482145e-13 0)
(-10.2143108104 -4.69102732583e-13 0)
(-10.3781228024 -5.04825866583e-13 0)
(-10.5465675046 -5.12575176773e-13 0)
(-10.7174298164 -4.8823109379e-13 0)
(-10.8918716225 -4.37925606766e-13 0)
(-11.0693315033 -3.60887973817e-13 0)
(-11.2503337054 -2.68136700157e-13 0)
(-11.4333907225 -1.77695757096e-13 0)
(-11.6195391738 -9.05751515271e-14 0)
(-11.8080817708 -1.71745304835e-14 0)
(-11.9982383645 2.52349482607e-14 0)
(-12.1907133805 5.24999770974e-14 0)
(-12.3845312886 5.6760867063e-14 0)
(-12.5792317806 6.45275680404e-14 0)
(-12.7749142894 6.19706177425e-14 0)
(-12.97183 6.17193049052e-14 0)
(-13.1700727347 7.40225759622e-14 0)
(-13.3703130799 8.36203261389e-14 0)
(-13.5739301562 9.3194961478e-14 0)
(-13.7814886689 1.11769101212e-13 0)
(-13.9918845089 1.22319051538e-13 0)
(-14.205336001 1.22046056974e-13 0)
(-14.4280358504 1.28018718598e-13 0)
(-14.6525404332 1.06936334967e-13 0)
(-14.8810657824 5.888189221e-14 0)
(-15.1281248356 -2.02029667384e-14 0)
(-15.3749867473 -1.13353916188e-13 0)
(-15.6357382788 -2.16422327952e-13 0)
(-15.9307518742 -3.00595956511e-13 0)
(-16.2220604118 -3.78257841492e-13 0)
(-16.5584039748 -4.34037859736e-13 0)
(-16.9490337516 -4.66427223833e-13 0)
(-17.3385515054 -4.93518660421e-13 0)
(-17.8567960363 -4.83512366274e-13 0)
(-18.4191639471 -4.38630196031e-13 0)
(-19.0748376687 -3.58035823637e-13 0)
(-19.9500566506 -2.43895410926e-13 0)
(-20.8652750041 -1.26335028627e-13 0)
(-22.1422978963 -2.16452726144e-15 0)
(-23.5436053339 1.2424775553e-13 0)
(-25.3161219229 2.324792682e-13 0)
(-27.3639542468 3.22447325141e-13 0)
(-29.6111122484 3.95121599685e-13 0)
(-31.4408460686 4.37879590193e-13 0)
(-32.8133651238 4.66842153569e-13 0)
(-33.8389399678 4.68045988968e-13 0)
(-34.6097238491 4.46966375885e-13 0)
(-35.1978211631 4.1522700605e-13 0)
(-35.6574152463 3.66469374701e-13 0)
(-36.0273436037 3.05572814424e-13 0)
(-36.3354064134 2.50351212211e-13 0)
(-36.6006088398 1.94065922342e-13 0)
(-36.8359095375 1.4213835038e-13 0)
(-37.0503167371 1.07403479456e-13 0)
(-37.249861581 7.16533493794e-14 0)
(-37.4384746416 5.02483127567e-14 0)
(-37.6193559423 3.39358311311e-14 0)
(-37.7941742018 2.27682469495e-14 0)
(-37.9645037643 2.03434868091e-14 0)
(-38.1314304017 1.65285401226e-14 0)
(-38.2954557825 2.24361724748e-14 0)
(-38.4570121801 1.65615077113e-14 0)
(-38.6166627922 5.04687078747e-15 0)
(-38.7749403139 -1.67820995531e-14 0)
(-38.9323014563 -5.04709088718e-14 0)
(-39.0891531435 -7.70806696152e-14 0)
(-39.2458614308 -1.30374901668e-13 0)
(-39.4029727646 -1.82060236484e-13 0)
(-39.5606021133 -2.30062667807e-13 0)
(-39.7192691564 -2.71419152442e-13 0)
(-39.8791826214 -3.12410853937e-13 0)
(-40.0406541272 -3.5005976135e-13 0)
(-40.2039275608 -3.66978671961e-13 0)
(-40.3695292506 -3.78499908984e-13 0)
(-40.5374966263 -3.74631331237e-13 0)
(-40.7083879909 -3.64174042273e-13 0)
(-40.8826496776 -3.48289886091e-13 0)
(-41.0604285086 -3.17533296558e-13 0)
(-41.2426174555 -2.61246788635e-13 0)
(-41.4291959672 -2.03137126968e-13 0)
(-41.6210704457 -1.3329497659e-13 0)
(-41.8183286246 -5.28456481388e-14 0)
(-42.0215085641 1.63605337207e-14 0)
(-42.2309479553 8.22272006836e-14 0)
(-42.4466623087 1.46238969137e-13 0)
(-42.6690849735 2.08997632155e-13 0)
(-42.897643129 2.58733315756e-13 0)
(-43.1323303422 2.99010183567e-13 0)
(-43.3726156256 3.2866614086e-13 0)
(-43.6179932932 3.46922298566e-13 0)
(-43.8682720066 3.59980834231e-13 0)
(-44.1230270005 3.7310528023e-13 0)
(-44.3821841851 3.54694926846e-13 0)
(-44.6455558923 3.4375501114e-13 0)
(-44.9134911911 3.26620691276e-13 0)
(-45.1855702214 3.02322063408e-13 0)
(-45.4627416008 2.7754052518e-13 0)
(-45.7447022575 2.42296002724e-13 0)
(-46.0324241996 2.00243930467e-13 0)
(-46.3215449425 1.62321741197e-13 0)
(-46.6004388346 1.27913129507e-13 0)
(-46.8677906031 8.7321747762e-14 0)
(-47.123546848 5.08207625942e-14 0)
(-47.3685110268 9.86043694471e-15 0)
(-47.6023934382 -2.50318627208e-14 0)
(-47.8258906095 -5.81434858352e-14 0)
(-48.0405870956 -7.43808726358e-14 0)
(-48.2472553276 -9.0840818068e-14 0)
(-48.4472433413 -1.02386311953e-13 0)
(-48.6421100881 -1.19165936229e-13 0)
(-48.8324977261 -1.25912258868e-13 0)
(-49.0198314903 -1.27254325847e-13 0)
(-49.204751664 -1.15517549756e-13 0)
(-49.3869170377 -1.16934493771e-13 0)
(-49.5670284641 -1.073911142e-13 0)
(-49.7456066699 -7.89666579693e-14 0)
(-49.9222842936 -5.27238983488e-14 0)
(-50.0967984597 -1.1059346354e-14 0)
(-50.2683149149 2.68422404483e-14 0)
(-50.4357213396 6.05303759136e-14 0)
(-50.5987000558 9.33390618324e-14 0)
(-50.7565501177 1.29546513508e-13 0)
(-50.9099416057 1.63254186178e-13 0)
(-51.0578984383 1.94591711199e-13 0)
(-51.2026489388 2.26330154733e-13 0)
(-51.3439061194 2.6484195412e-13 0)
(-51.4816549187 2.84776530339e-13 0)
(-51.6173788103 3.12186206853e-13 0)
(-51.750450805 3.36580009873e-13 0)
(-51.880400962 3.44452217779e-13 0)
(-52.007781018 3.48348227115e-13 0)
(-52.132376007 3.4851435481e-13 0)
(-52.2540644752 3.39571108187e-13 0)
(-52.3735778808 3.18936685078e-13 0)
(-52.4912429526 2.85173621552e-13 0)
(-52.6065758533 2.52868637807e-13 0)
(-52.7193832606 2.21862874705e-13 0)
(-52.830216895 1.90174853071e-13 0)
(-52.9395673463 1.52605053935e-13 0)
(-53.0474331563 1.36407597674e-13 0)
(-53.1533282552 1.02874356848e-13 0)
(-53.2568815086 6.92379856108e-14 0)
(-53.3581088065 4.87213722754e-14 0)
(-53.4571332262 2.35742541107e-14 0)
(-53.5545720659 1.0069621524e-14 0)
(-53.6508762414 -4.7345495419e-15 0)
(-53.7462165738 -3.60297930322e-15 0)
(-53.8417496515 -9.94858506221e-15 0)
(-53.9357808764 7.16803100806e-15 0)
(-54.0305537699 1.93831347905e-14 0)
(-54.1249044766 3.0450583426e-14 0)
(-54.2187317914 6.31597106915e-14 0)
(-54.3115578799 9.61450179743e-14 0)
(-54.4035848759 1.20280874759e-13 0)
(-54.4950975216 1.53324121115e-13 0)
(-54.5862532555 1.87036110822e-13 0)
(-54.6771690844 2.27904979683e-13 0)
(-54.7679717751 2.54442521744e-13 0)
(-54.8587604409 2.76075008653e-13 0)
(-54.949372345 2.9060948712e-13 0)
(-55.0397141456 3.00310309508e-13 0)
(-55.1297409247 3.0403338563e-13 0)
(-55.2193498862 3.05154602595e-13 0)
(-55.3083940017 2.94337161994e-13 0)
(-55.3966990928 2.77775542093e-13 0)
(-55.4840991113 2.65003204446e-13 0)
(-55.5704734897 2.43840648804e-13 0)
(-55.655771373 2.13308438329e-13 0)
(-55.7400222421 1.85794787994e-13 0)
(-55.8233356245 1.47462656286e-13 0)
(-55.9058844953 1.17948020024e-13 0)
(-55.9878768952 8.39619519891e-14 0)
(-56.0695376987 4.3953889424e-14 0)
(-56.1510930915 9.21925143026e-15 0)
(-56.2328808765 -2.27721841477e-14 0)
(-56.3151021689 -4.27948047974e-14 0)
(-56.3980155977 -6.47962705583e-14 0)
(-56.4818652636 -7.94369766996e-14 0)
(-56.5669228167 -1.01287286955e-13 0)
(-56.6534870054 -1.06917340282e-13 0)
(-56.7418323331 -1.02968470404e-13 0)
(-56.8321975252 -9.54096408552e-14 0)
(-56.9230150906 -8.55844354849e-14 0)
(-57.012977381 -6.68069285056e-14 0)
(-57.101876023 -4.34769487068e-14 0)
(-57.1894483898 -2.13068500284e-14 0)
(-57.2755046544 8.88426423022e-15 0)
(-57.3597273849 3.50290400654e-14 0)
(-57.4418208622 7.12098840141e-14 0)
(-57.521511748 1.07658324483e-13 0)
(-57.5985351877 1.39666164385e-13 0)
(-57.6725793103 1.70060026824e-13 0)
(-57.7434716415 1.95517433592e-13 0)
(-57.811026172 2.29253824079e-13 0)
(-57.8751988314 2.54005836915e-13 0)
(-57.9359925392 2.6534542538e-13 0)
(-57.9935164352 2.84409771393e-13 0)
(-58.0479952128 2.92234326249e-13 0)
(-58.099716817 2.93109462556e-13 0)
(-58.1490028833 2.92977373473e-13 0)
(-58.1962886387 2.9038215342e-13 0)
(-58.2418860849 2.93719421568e-13 0)
(-58.2862433996 2.82523639297e-13 0)
(-58.3296631022 2.71455935721e-13 0)
(-58.3725223104 2.64537676871e-13 0)
(-58.4148972907 2.50029003683e-13 0)
(-58.4570398162 2.21634264424e-13 0)
(-58.4989784491 2.02897663579e-13 0)
(-58.5407301179 1.92049957903e-13 0)
(-58.582419561 1.74762404476e-13 0)
(-58.6240727304 1.50499822733e-13 0)
(-58.6657801016 1.30392998367e-13 0)
(-58.7076229481 1.22612275617e-13 0)
(-58.7497049516 1.16010819202e-13 0)
(-58.7921606217 1.0183966565e-13 0)
(-58.8351404331 1.02112457127e-13 0)
(-58.8788218987 9.42022146018e-14 0)
(-58.9233965027 1.01278800716e-13 0)
(-58.9690737686 1.05181693404e-13 0)
(-59.0160904371 1.05947188044e-13 0)
(-59.0647262881 1.09676243152e-13 0)
(-59.1153484699 1.22730753732e-13 0)
(-59.1684096698 1.37807462771e-13 0)
(-59.2243308352 1.49517373712e-13 0)
(-59.283376794 1.63037909287e-13 0)
(-59.3458261664 1.70566789425e-13 0)
(-59.4122337038 1.8899782001e-13 0)
(-59.4830608543 2.00200328652e-13 0)
(-59.5582905069 2.08076280708e-13 0)
(-59.6378971734 2.12982418843e-13 0)
(-59.7224111207 2.21022248415e-13 0)
(-59.8117926469 2.29366210612e-13 0)
(-59.9060465622 2.26712631751e-13 0)
(-60.0043286898 2.20896084964e-13 0)
(-60.1003015914 2.19294659604e-13 0)
(-60.1923651732 2.16847923431e-13 0)
(-60.2801496551 2.10771318122e-13 0)
(-60.3634930868 1.92496447467e-13 0)
(-60.442105111 1.75165410457e-13 0)
(-60.5157718483 1.44025368864e-13 0)
(-60.5845282405 1.21725902673e-13 0)
(-60.6486029601 9.35753057902e-14 0)
(-60.7083242295 6.65850189659e-14 0)
(-60.7640713147 4.51346799575e-14 0)
(-60.8162638265 2.18229738886e-14 0)
(-60.8653382541 -1.32977326853e-14 0)
(-60.9117270886 -3.36807962241e-14 0)
(-60.9558269319 -6.26909954371e-14 0)
(-60.9979777876 -8.97281236598e-14 0)
(-61.0384561558 -1.14810710485e-13 0)
(-61.0774882467 -1.34829103182e-13 0)
(-61.1152740295 -1.480805912e-13 0)
(-61.1520004859 -1.56046118274e-13 0)
(-61.1878492768 -1.64053598388e-13 0)
(-61.2229928683 -1.72759847767e-13 0)
(-61.2575954149 -1.75491510633e-13 0)
(-61.2917989659 -1.7079898516e-13 0)
(-61.3257355034 -1.69725927953e-13 0)
(-61.3595188705 -1.61913431541e-13 0)
(-61.3932330745 -1.54437387127e-13 0)
(-61.4269695772 -1.43558766006e-13 0)
(-61.4607680446 -1.22898310045e-13 0)
(-61.4946668394 -1.08822083389e-13 0)
(-61.5286713442 -8.90853255047e-14 0)
(-61.5628484769 -6.57595008054e-14 0)
(-61.5972124182 -4.90067682185e-14 0)
(-61.6317996328 -2.84983036025e-14 0)
(-61.6666518015 -3.55351803745e-15 0)
(-61.7018531499 2.00938703233e-14 0)
(-61.7375603238 3.42679897243e-14 0)
(-61.7739436266 5.68921739603e-14 0)
(-61.8110981948 8.02678643073e-14 0)
(-61.8491224155 1.02063070953e-13 0)
(-61.888181593 1.21609211779e-13 0)
(-61.9282987781 1.38426450929e-13 0)
(-61.9694765453 1.59989964053e-13 0)
(-62.0117785265 1.69249244672e-13 0)
(-62.0549987097 1.76689676968e-13 0)
(-62.0985109813 1.78069395559e-13 0)
(-62.1416659262 1.81228178991e-13 0)
(-62.1846649849 1.91867896515e-13 0)
(-62.2276383869 1.91054278163e-13 0)
(-62.2706467142 1.95139457527e-13 0)
(-62.3138082495 1.91473522627e-13 0)
(-62.3573169285 1.90736694344e-13 0)
(-62.4014015537 1.85563828678e-13 0)
(-62.446382081 1.76930846183e-13 0)
(-62.4926656756 1.65324664991e-13 0)
(-62.540696284 1.60207661863e-13 0)
(-62.5909374753 1.48910068939e-13 0)
(-62.6438906323 1.3468498713e-13 0)
(-62.7000964587 1.22181360863e-13 0)
(-62.7601103447 1.11588548179e-13 0)
(-62.8245050051 9.68799084089e-14 0)
(-62.8938974155 7.94433076208e-14 0)
(-62.9689294637 6.62651128532e-14 0)
(-63.0500148876 5.8638165391e-14 0)
(-63.1316086634 4.13584484542e-14 0)
(-63.2096772726 2.10014232534e-14 0)
(-63.2842695165 1.15137566816e-14 0)
(-63.355407691 -4.63035216026e-15 0)
(-63.423115475 -1.34228992402e-14 0)
(-63.4874256598 -2.9093137306e-14 0)
(-63.5483882085 -4.07903933381e-14 0)
(-63.6060773657 -4.62585001537e-14 0)
(-63.6605928002 -5.52716767011e-14 0)
(-63.7120624853 -6.61912124113e-14 0)
(-63.7606426412 -7.67062901358e-14 0)
(-63.8065155365 -8.2572186067e-14 0)
(-63.8498862338 -8.77002447623e-14 0)
(-63.8909778495 -9.58753332606e-14 0)
(-63.9300235037 -1.02413723971e-13 0)
(-63.967260269 -1.0530691012e-13 0)
(-64.0029197519 -1.13308584576e-13 0)
(-64.0372196139 -1.24309245321e-13 0)
(-64.0703618602 -1.28492184887e-13 0)
(-64.1025304907 -1.29370354167e-13 0)
(-64.1338944921 -1.36091798389e-13 0)
(-64.1646097051 -1.4026917012e-13 0)
(-64.1948234587 -1.43586678486e-13 0)
(-64.2246673103 -1.48774413792e-13 0)
(-64.2542517442 -1.5148967554e-13 0)
(-64.2836546089 -1.58150452791e-13 0)
(-64.3129503022 -1.65761857871e-13 0)
(-64.3422126969 -1.67128790257e-13 0)
(-64.371497217 -1.71776907192e-13 0)
(-64.400923578 -1.77039309015e-13 0)
(-64.4306899416 -1.80637351378e-13 0)
(-64.4610175744 -1.84881915565e-13 0)
(-64.4921435088 -1.87827167713e-13 0)
(-64.5243513961 -1.91791775008e-13 0)
(-64.5580063427 -1.98642718589e-13 0)
(-64.5935764975 -2.01269832607e-13 0)
(-64.6316401179 -2.05040182972e-13 0)
(-64.6728425652 -2.10658475722e-13 0)
(-64.7178203143 -2.14107266509e-13 0)
(-64.7671592225 -2.14848453075e-13 0)
(-64.8212551302 -2.19400268751e-13 0)
(-64.8758106506 -2.15976034137e-13 0)
(-64.9277138481 -2.17126527256e-13 0)
(-64.9770593827 -2.20734522721e-13 0)
(-65.0240249464 -2.21019654605e-13 0)
(-65.0688300331 -2.16029584412e-13 0)
(-65.1117158347 -2.15000438681e-13 0)
(-65.1529352471 -2.14003668872e-13 0)
(-65.1927398842 -2.13239976134e-13 0)
(-65.2313738229 -2.08733736091e-13 0)
(-65.2690592039 -2.05682800745e-13 0)
(-65.3059875919 -1.94587975452e-13 0)
(-65.3423084582 -1.86961541511e-13 0)
(-65.3781321651 -1.78326751029e-13 0)
(-65.4135361702 -1.71325443146e-13 0)
(-65.4485557841 -1.58903197117e-13 0)
(-65.4832913682 -1.44989660714e-13 0)
(-65.5178277711 -1.33928315686e-13 0)
(-65.5522566871 -1.24856218565e-13 0)
(-65.5866652265 -1.13764171466e-13 0)
(-65.6211389083 -1.03999142589e-13 0)
(-65.655886518 -8.75602378465e-14 0)
(-65.6913361618 -7.40450601737e-14 0)
(-65.7280488594 -6.26759216295e-14 0)
(-65.766575499 -5.0521782801e-14 0)
(-65.8075834241 -3.50130604176e-14 0)
(-65.8520335423 -1.99026459704e-14 0)
(-65.9010380481 -8.79890195402e-15 0)
(-65.9557413278 4.83322523483e-15 0)
(-66.0174574763 1.37608312453e-14 0)
(-66.0844815034 2.70028061613e-14 0)
(-66.1481425073 3.46813481322e-14 0)
(-66.2071360968 3.98195994451e-14 0)
(-66.2614774069 4.65046169309e-14 0)
(-66.3112903518 5.62390352049e-14 0)
(-66.3568000892 6.05281024166e-14 0)
(-66.3983058726 6.29945926955e-14 0)
(-66.4361698698 6.82196021037e-14 0)
(-66.4707888323 7.17318837519e-14 0)
(-66.5025852588 7.31361120237e-14 0)
(-66.5319835198 7.45477604493e-14 0)
(-66.5593976486 7.27135269363e-14 0)
(-66.5852208994 6.96939626132e-14 0)
(-66.6098106323 6.91025336999e-14 0)
(-66.633488803 6.53383781617e-14 0)
(-66.6565275179 6.48703454866e-14 0)
(-66.6791568983 6.10766577778e-14 0)
(-66.7015546468 5.54440234014e-14 0)
(-66.7238671941 4.58557227373e-14 0)
(-66.7462488553 3.46358456525e-14 0)
(-66.7688344843 2.36930674705e-14 0)
(-66.7917311844 1.61296919964e-14 0)
(-66.8151003593 3.59686354045e-15 0)
(-66.8391971149 -5.75453705658e-15 0)
(-66.8644181573 -1.68389374691e-14 0)
(-66.8912990901 -2.80026301681e-14 0)
(-66.9204774681 -4.34482918855e-14 0)
(-66.9527181117 -5.72463407731e-14 0)
(-66.9889791983 -7.30929997318e-14 0)
(-67.0303636538 -8.40179645381e-14 0)
(-67.0779655287 -9.6512999312e-14 0)
(-67.1328827953 -1.07847672735e-13 0)
(-67.1963549122 -1.21469973777e-13 0)
(-67.2683552236 -1.3192386653e-13 0)
(-67.338480462 -1.42951292918e-13 0)
(-67.4034896028 -1.53342678094e-13 0)
(-67.4634972232 -1.65439253028e-13 0)
(-67.5187265834 -1.78332715723e-13 0)
(-67.5694671623 -1.90437349132e-13 0)
(-67.6160587662 -2.00294621042e-13 0)
(-67.6588767178 -2.08948889622e-13 0)
(-67.6983098905 -2.13247570582e-13 0)
(-67.7347583965 -2.19242978854e-13 0)
(-67.7686113863 -2.23122107626e-13 0)
(-67.8002493102 -2.28946181813e-13 0)
(-67.8300293018 -2.32101537875e-13 0)
(-67.8582845936 -2.36599498295e-13 0)
(-67.8853206395 -2.39966189975e-13 0)
(-67.9114178774 -2.44515754911e-13 0)
(-67.9368198308 -2.47712972229e-13 0)
(-67.9617505515 -2.51084413253e-13 0)
(-67.9863892383 -2.47552058707e-13 0)
(-68.0108787605 -2.47913719614e-13 0)
(-68.0353217536 -2.44698781084e-13 0)
(-68.0598042427 -2.44707328302e-13 0)
(-68.0844678703 -2.40942916179e-13 0)
(-68.1095138069 -2.40119407714e-13 0)
(-68.1352232289 -2.33239553474e-13 0)
(-68.1619506719 -2.26440146707e-13 0)
(-68.1901523828 -2.20375472671e-13 0)
(-68.2204040609 -2.12796431241e-13 0)
(-68.2533867997 -2.06085738772e-13 0)
(-68.2898790667 -1.9919484766e-13 0)
(-68.3307478164 -1.91106808056e-13 0)
(-68.3769144643 -1.82691918487e-13 0)
(-68.4293471741 -1.73333419355e-13 0)
(-68.4891225934 -1.63032637732e-13 0)
(-68.5574442657 -1.51490310585e-13 0)
(-68.6355840055 -1.44284335314e-13 0)
(-68.7194336441 -1.31547976684e-13 0)
(-68.7986542778 -1.24317448415e-13 0)
(-68.8723887821 -1.15515829517e-13 0)
(-68.9407510225 -1.05826160503e-13 0)
(-69.0039232063 -9.65089426194e-14 0)
(-69.0621532055 -8.97542563857e-14 0)
(-69.1157316418 -8.05326654302e-14 0)
(-69.1649860363 -7.28254946086e-14 0)
(-69.210275155 -6.55313377267e-14 0)
(-69.2519704489 -5.6290415471e-14 0)
(-69.2904599273 -5.07365607753e-14 0)
(-69.3261263132 -4.29059424923e-14 0)
(-69.3593540643 -3.45949533887e-14 0)
(-69.390509815 -2.55622416828e-14 0)
(-69.4199510465 -1.80950031663e-14 0)
(-69.4480026111 -1.34207522914e-14 0)
(-69.4749737588 -7.43567264068e-15 0)
(-69.5011302802 -1.90395632739e-15 0)
(-69.5267103121 1.73615833979e-15 0)
(-69.5519062409 7.04036816493e-15 0)
(-69.5768706243 8.57798212186e-15 0)
(-69.6017083775 1.31830039229e-14 0)
(-69.6264831009 1.59924647559e-14 0)
(-69.6512583233 2.02218245113e-14 0)
(-69.6761126899 2.34081554867e-14 0)
(-69.7012085368 2.70904826083e-14 0)
(-69.7268009347 2.72391260866e-14 0)
(-69.7532291552 2.92153270468e-14 0)
(-69.7809113107 2.68806689438e-14 0)
(-69.8103561605 2.6656801839e-14 0)
(-69.8421569093 2.76848557616e-14 0)
(-69.8769777758 2.55254411994e-14 0)
(-69.9155365061 2.1982459199e-14 0)
(-69.9585953622 1.98662531295e-14 0)
(-70.0069224268 1.72860434759e-14 0)
(-70.0612568693 1.57621741938e-14 0)
(-70.122244247 1.48329437806e-14 0)
(-70.1899580467 1.1939448309e-14 0)
(-70.2572030665 8.74236056689e-15 0)
(-70.3208353125 3.92204852312e-15 0)
(-70.38114089 1.31528102193e-15 0)
(-70.4384278769 -2.45252904015e-15 0)
(-70.4930139276 -7.55292907196e-15 0)
(-70.5452188655 -1.17077594595e-14 0)
(-70.5953568806 -1.68870617231e-14 0)
(-70.6437316164 -2.012541573e-14 0)
(-70.6906290853 -2.36803217017e-14 0)
(-70.736314562 -2.87313403653e-14 0)
(-70.7810295835 -3.20764886939e-14 0)
(-70.824989059 -3.86166843757e-14 0)
(-70.868382848 -4.5342827616e-14 0)
(-70.9113696024 -5.01366011306e-14 0)
(-70.9540829857 -5.36919164305e-14 0)
(-70.9966224621 -5.70504550418e-14 0)
(-71.0390625312 -6.47357735421e-14 0)
(-71.0814447827 -6.97890750866e-14 0)
(-71.1238210135 -7.56584451821e-14 0)
(-71.166246584 -7.99827391828e-14 0)
(-71.2088359707 -8.61009215551e-14 0)
(-71.2517722792 -8.92579576441e-14 0)
(-71.2953093204 -9.43615100566e-14 0)
(-71.3397660962 -9.77974514244e-14 0)
(-71.3855303752 -1.04396900627e-13 0)
(-71.433062021 -1.04586512794e-13 0)
(-71.4828947378 -1.07857366944e-13 0)
(-71.5356302623 -1.06749296973e-13 0)
(-71.5914792958 -1.08765063995e-13 0)
(-71.646654901 -1.05894133852e-13 0)
(-71.6997437115 -1.05404040715e-13 0)
(-71.7507274406 -1.00865308808e-13 0)
(-71.799657506 -9.92691470758e-14 0)
(-71.8466476701 -9.66660964594e-14 0)
(-71.891857282 -9.84929843327e-14 0)
(-71.9354836445 -9.54358553505e-14 0)
(-71.9777393525 -9.68648307833e-14 0)
(-72.0188512331 -9.45197756865e-14 0)
(-72.0590361374 -9.56149609225e-14 0)
(-72.098505983 -9.58860722353e-14 0)
(-72.1374485599 -9.83560514951e-14 0)
(-72.1760314128 -9.67341526222e-14 0)
(-72.214396184 -9.92472639867e-14 0)
(-72.2526502334 -9.46641563309e-14 0)
(-72.2908712855 -9.76426867759e-14 0)
(-72.3291162861 -9.50773549213e-14 0)
(-72.3674325017 -9.47865226501e-14 0)
(-72.4059329434 -9.4636084098e-14 0)
(-72.4448095754 -9.58540219767e-14 0)
(-72.4843452433 -9.58302952364e-14 0)
(-72.5249167814 -9.63098503079e-14 0)
(-72.5670226335 -9.57193516033e-14 0)
(-72.6113262401 -9.58523868843e-14 0)
(-72.6586537113 -9.69789328561e-14 0)
(-72.7099762283 -9.55726449116e-14 0)
(-72.7664623022 -9.62613435241e-14 0)
(-72.8295609553 -9.715821453e-14 0)
(-72.8984426115 -9.72410722023e-14 0)
(-72.964363422 -9.83597258842e-14 0)
(-73.0254103898 -9.81670084526e-14 0)
(-73.0813627791 -9.93761625732e-14 0)
(-73.1321621776 -9.95836339792e-14 0)
(-73.1778922733 -1.00118723218e-13 0)
(-73.218754826 -9.96456865271e-14 0)
(-73.2550460929 -9.85128344169e-14 0)
(-73.2871325626 -9.86089444185e-14 0)
(-73.3154320287 -9.86384437267e-14 0)
(-73.3403849685 -9.88369076202e-14 0)
(-73.3624459117 -9.68259226401e-14 0)
(-73.3820615155 -9.65549142555e-14 0)
(-73.3996588135 -9.48079334979e-14 0)
(-73.4156368403 -9.46933055772e-14 0)
(-73.430358266 -9.23362860478e-14 0)
(-73.4441446668 -9.26070476419e-14 0)
(-73.4572700344 -8.84461933448e-14 0)
(-73.469963087 -8.91014926772e-14 0)
(-73.4824010143 -8.58345466691e-14 0)
(-73.4947104845 -8.67243882748e-14 0)
(-73.5069651843 -8.38991787058e-14 0)
(-73.5192291462 -8.33102934767e-14 0)
(-73.5316147837 -8.11818549675e-14 0)
(-73.5443493205 -7.86069795433e-14 0)
(-73.5577727934 -7.8299660651e-14 0)
(-73.5723405687 -7.63397516465e-14 0)
(-73.5886306111 -7.51335466653e-14 0)
(-73.6073498684 -7.16522703524e-14 0)
(-73.6293391054 -7.04391361085e-14 0)
(-73.6555782408 -6.9738312856e-14 0)
(-73.6871869592 -6.75626289251e-14 0)
(-73.7254206429 -6.505077115e-14 0)
(-73.7716644441 -6.32375850078e-14 0)
(-73.8274297012 -6.16155239901e-14 0)
(-73.8943534092 -5.98902090528e-14 0)
(-73.9742080811 -5.80932559455e-14 0)
(-74.0687920429 -5.6625820239e-14 0)
(-74.1685040903 -5.409904608e-14 0)
(-74.2601584407 -5.41342556933e-14 0)
(-74.3433315282 -5.00863983151e-14 0)
(-74.4181779819 -4.93733533997e-14 0)
(-74.4849771087 -4.74315047813e-14 0)
(-74.5441121542 -4.51918297722e-14 0)
(-74.5960507437 -4.38138880382e-14 0)
(-74.6413257225 -4.2711361875e-14 0)
(-74.6805154987 -3.98307744687e-14 0)
(-74.714227968 -3.92300552886e-14 0)
(-74.7430817833 -3.66453623752e-14 0)
(-74.7676936266 -3.62301282316e-14 0)
(-74.7886643017 -3.35595929263e-14 0)
(-74.8065653083 -3.36941678621e-14 0)
(-74.8219351569 -2.9944032326e-14 0)
(-74.8352675513 -2.97296649941e-14 0)
(-74.8470054994 -2.58720295721e-14 0)
(-74.8575427896 -2.69169884547e-14 0)
(-74.8672101511 -2.21289170371e-14 0)
(-74.8762892461 -2.297890703e-14 0)
(-74.8849962231 -1.86010030796e-14 0)
(-74.8935050419 -2.04955924172e-14 0)
(-74.901931835 -1.52737907403e-14 0)
(-74.9103451048 -1.77828943502e-14 0)
(-74.9187940284 -1.20698305151e-14 0)
(-74.9274154737 -1.49314244312e-14 0)
(-74.9364313032 -9.25917383647e-15 0)
(-74.9461540909 -1.16763774681e-14 0)
(-74.9570125234 -6.01593306341e-15 0)
(-74.9695557217 -1.00232552466e-14 0)
(-74.9844254738 -6.04900318935e-15 0)
(-75.0023328554 -8.92525965464e-15 0)
(-75.0240528754 -5.95848394518e-15 0)
(-75.0504187893 -8.39328359231e-15 0)
(-75.082294475 -5.29147842121e-15 0)
(-75.1205395394 -8.88613467699e-15 0)
(-75.165995036 -5.30196800768e-15 0)
(-75.2194938003 -8.14822605296e-15 0)
(-75.281875225 -5.20429532166e-15 0)
(-75.3540076185 -7.70576915683e-15 0)
(-75.4368576066 -5.66299931943e-15 0)
(-75.5315961999 -6.25965011129e-15 0)
(-75.631690193 -6.10852566081e-15 0)
(-75.7255562538 -5.93607757196e-15 0)
(-75.8124882121 -5.78204313829e-15 0)
(-75.8924369273 -5.64332674056e-15 0)
(-75.9654066313 -5.48601020657e-15 0)
(-76.0314753335 -5.289317449e-15 0)
(-76.0908002815 -5.08578062159e-15 0)
(-76.143620238 -4.87444024817e-15 0)
(-76.1902503492 -4.72424987325e-15 0)
(-76.2310748123 -4.57315455361e-15 0)
(-76.2665349427 -4.42433069121e-15 0)
(-76.2971150197 -4.20497395933e-15 0)
(-76.3233282168 -3.93095376949e-15 0)
(-76.3457009801 -3.67843377742e-15 0)
(-76.3647611756 -3.52549636814e-15 0)
(-76.3810213445 -3.350978922e-15 0)
(-76.3949730855 -3.71912608855e-15 0)
(-76.4070715235 -4.74427873472e-15 0)
(-76.4177328504 -4.73181685561e-15 0)
(-76.4273234846 -4.53925525195e-15 0)
(-76.4361598491 -4.2650275988e-15 0)
(-76.4445013499 -3.95219642192e-15 0)
(-76.4525533374 -3.66741044769e-15 0)
(-76.4604648112 -3.51127956379e-15 0)
(-76.4683341219 -3.24144285949e-15 0)
(-76.4762070495 -3.09013159656e-15 0)
(-76.4841669018 -2.90234898162e-15 0)
(-76.4923974553 -2.53180367173e-15 0)
(-76.5011838668 -2.22428571418e-15 0)
(-76.5109348262 -1.90644002762e-15 0)
(-76.5221863928 -1.85497618139e-15 0)
(-76.5355872097 -1.97547338553e-15 0)
(-76.5518901246 -1.18468084161e-15 0)
(-76.5719451888 -8.49435425181e-16 0)
(-76.5966690527 -4.83330516757e-16 0)
(-76.6270049981 -1.4342877302e-16 0)
(-76.6638849275 1.78206501639e-16 0)
(-76.7081764806 5.09492553285e-16 0)
(-76.7605831748 5.75917390399e-16 0)
(-76.8207365902 -7.64396541343e-16 0)
(-76.8796225394 -7.5956062389e-16 0)
(-76.9343502078 -4.13930806815e-16 0)
(-76.9854098252 -6.74305685101e-17 0)
(-77.0333057793 -2.06003283579e-16 0)
(-77.0785450337 -1.39394846795e-15 0)
(-77.1216194784 -1.29521124269e-15 0)
(-77.1629942878 -9.52194662726e-16 0)
(-77.2030938297 -6.7497182621e-16 0)
(-77.2422942169 4.19897876e-17 0)
(-77.2809112818 5.97893449669e-16 0)
(-77.3191973702 1.03389076851e-15 0)
(-77.3573339135 1.32956858708e-15 0)
(-77.3954273178 1.75264091395e-15 0)
(-77.43356262 2.14110436295e-15 0)
(-77.471944247 2.40463718906e-15 0)
(-77.5109573757 2.637224036e-15 0)
(-77.5511921483 2.97534866949e-15 0)
(-77.593486014 3.24614840161e-15 0)
(-77.6389797815 3.45182878073e-15 0)
(-77.6883388838 3.66645991356e-15 0)
(-77.7364841445 4.00057456785e-15 0)
(-77.7813138745 4.18002812578e-15 0)
(-77.8223250916 3.66039539897e-15 0)
(-77.8591868783 3.80852605642e-15 0)
(-77.8917300357 3.00949055059e-15 0)
(-77.9199325605 2.34045440904e-15 0)
(-77.943900698 2.73825394171e-15 0)
(-77.9638481538 2.09517685848e-15 0)
(-77.980072625 1.31953098291e-15 0)
(-77.9929351045 8.2053159295e-16 0)
(-78.0028351722 4.14627957876e-16 0)
(-78.0101944051 -2.3598234909e-17 0)
(-78.0154346417 -2.36303143447e-16 0)
(-78.0189685189 -6.00805960143e-16 0)
(-78.0211848783 -7.53280055629e-16 0)
(-78.0224479993 -8.37309677219e-16 0)
(-78.0230917197 -8.70808732212e-16 0)
(-78.0233372264 -1.08297769481e-15 0)
(-78.023103541 -1.23382380786e-15 0)
(-78.0221046275 -1.59971938536e-15 0)
(-78.0198619666 -1.73380632579e-15 0)
(-78.0170905377 -2.01100375721e-15 0)
(-78.0150582089 -1.96134648648e-15 0)
(-78.0137656072 -1.95522433598e-15 0)
(-78.0130979806 -1.80547111519e-15 0)
(-78.0128895756 -2.03961322301e-15 0)
(-78.0130642715 -2.28972412197e-15 0)
(-78.0135225656 -2.0433555218e-15 0)
(-78.0146519612 -1.57840451409e-15 0)
(-78.0169396836 -1.12577580873e-15 0)
(-78.0209801326 -6.5419086065e-16 0)
(-78.0274478805 -2.1161560224e-16 0)
(-78.037083865 -1.52826397121e-16 0)
(-78.0506693943 0 0)
(-78.068984072 0 0)
(-78.0927663526 0 0)
(-78.1226813996 0 0)
(-78.159291934 0 0)
(-78.2030299299 0 0)
(-78.2541716178 0 0)
(-78.3128251424 0 0)
(-78.37895283 0 0)